% Model:              VLR_3_01V03.mph
% Version:            COMSOL 5.5.0.292
% Date:               Jun 7 2020, 21:12
% Dimension:          2
% Nodes:              3381
% Expressions:        1
% Description:        Electric potential
% Length unit:        cm
% x                       y                        V2 (V)
-0.043610259754689656     -0.08998969521077675     9.998218268914549+0.046990926401930956i
-0.04130391348466197      -0.1106433913365255      9.507050723190217+0.04110349339824886i
-0.02265369791667273      -0.0974002565227635      9.998071244138021+0.050860908063451025i
-0.016979805975223427     -0.11682016650520503     9.48069957394528+0.043438745730749954i
0                         -0.1                     9.99801952032916+0.052221555888092325i
-0.06263383237945895      -0.09806864611575233     9.596252527348376+0.037558793742915715i
-0.06241300531509565      -0.07813204699441734     9.998453523543937+0.0407985467478112i
0.011495363471991269      -0.12252872915351799     9.345156225715243+0.04181757940514327i
0.022653716388030657      -0.09740025222662757     9.998071082283202+0.05086415408574338i
0.043611234888071976      -0.08998922264103305     9.99821833286968+0.04698974962804564i
0.041624055473139986      -0.11351108212765353     9.435806707850382+0.04018208907328876i
-0.08206701739128376      -0.08302444820263494     9.652078545764665+0.03158855545678103i
-0.07813136861957454      -0.06241385453272508     9.998765360769506+0.03259028006780186i
0.06363591945430257       -0.09952344505063786     9.556088149808085+0.0369544794724822i
0.06241385453272508       -0.07813136861957454     9.998453550083761+0.04079795061366575i
-0.08998922264103305      -0.043611234888071976    9.999138314540648+0.02277264458719998i
-0.09835937325025161      -0.06476636100485067     9.715680018257556+0.024202373557961527i
0.08301712296082947       -0.08301622064827016     9.641381352953475+0.03122060070044508i
0.07813204699441734       -0.06241300531509565     9.998765358842608+0.03259016740696894i
-0.09740025222662757      -0.022653716388030657    9.99955387714272+0.01183223921422452i
-0.1110143673619004       -0.04395316791889864     9.793557249390268+0.01596571927088718i
0.09866999824396167       -0.06315683978730592     9.73029314847652+0.02385726879872364i
0.08998969521077675       -0.043610259754689656    9.999138293324828+0.02277286460002448i
0.11035856678296607       -0.040654589859128884    9.82278180320475+0.015233991551680542i
0.0974002565227635        -0.02265369791667273     9.999553917396527+0.011831599352060122i
-0.1                      0                        10.000003328415541+2.2455264587922502E-6i
-0.11898953043544787      -0.006387658192004718    9.970205794029418+0.002326871397669244i
0.1                       0                        10.000003539078923-1.4954934978117413E-6i
0.1185716179807322        0.007133330205912041     10.032757946543832-0.0026159342453882656i
0.09740027152773081       0.022653633402266993     10.000452985528367-0.01183138372510572i
0.11681793996182507       -0.017290094830905198    9.922936011903309+0.006420683059829078i
-0.09740027579126098      0.02265361507102783      10.000452978901055-0.011831245672904745i
-0.11711570077368715      0.01808194145623844      10.082011229793176-0.0066666500947317785i
-0.08998976940816245      0.04361010664818135      10.000868577231918-0.022772102524676527i
-0.11053232109098145      0.04180510752452123      10.186738800561008-0.015512159961999504i
0.08998929695878763       0.043611081537415886     10.00086856736417-0.02277206227452366i
0.11044497070349987       0.044060754330434104     10.202947089743018-0.016140644657435612i
-0.09868971236865892      0.06363107313992156      10.275100710926212-0.02392209177843863i
-0.07813220659018694      0.062412805523773304     10.001241536844908-0.03258981127469564i
-0.08278694786449456      0.08278566288219573      10.352398522033235-0.03131166063776437i
-0.062414122765496065     0.07813115434584073      10.00155337398602-0.040798085124028736i
-0.06358737277436428      0.09872391796917646      10.427103511342088-0.03710783064639247i
-0.04361161765327609      0.08998903714155662      10.00178855160439-0.0469891976488653i
-0.02265421350800062      0.09740013660326112      10.001935554782687-0.05085892758024435i
-0.04313916189860723      0.1108090634676282       10.510677121167994-0.040587699156517935i
0.0781315280452624        0.06241365495876985      10.00124151436672-0.032589572832640995i
0.09804164722611296       0.0643609116488913       10.276463454805361-0.02425720596695585i
0.08234733999736495       0.0829807050607362       10.350419587412334-0.03148067365666691i
0.06241327189725422       0.0781318340440017       10.001553350155591-0.04079780465761604i
0.06347653394415484       0.09861593372964138      10.423702783461737-0.037166809855794174i
0.04361064313298144       0.08998950941930808      10.001788624390953-0.04699050844595762i
0.0420714769307773        0.1101188139919511       10.485995722387685-0.041065772276527406i
0.02265419578313888       0.09740014072586965      10.001935705660795-0.05086157220554424i
0                         0.1                      10.001987266953092-0.05221913888824934i
-0.006469235516029825     0.11885125132798172      10.550377087131595-0.043445154759838844i
0.018037174033611         0.11777724363320316      10.547959343995556-0.0429655771721919i
-0.00509587741559925      -0.0410670399964869      9.998494124265305+0.034302312472365495i
-0.011511264375802868     -0.04865686788594568     9.998214834017048+0.040647288601506265i
0                         -0.05                    9.998165635937625+0.041766577745286665i
-0.021907439957443337     -0.044945122922415245    9.99835132436763+0.03754582041351969i
-0.013580156694836969     -0.03727148349138352     9.998633614508107+0.031132101336034054i
0.004428180733670958      -0.03972992267247989     9.998543266648257+0.03318546227196903i
0.011510879652121941      -0.04865695890244647     9.998214825988683+0.04064746053637434i
-0.022929265813663627     -0.03549534736926449     9.998698903348691+0.029648366161331395i
-0.03123622795269456      -0.03904225996644282     9.998568355746485+0.03261400625447628i
0.013350891724150916      -0.03953296223484311     9.998550494365713+0.0330211159473274i
0.02190754725884285       -0.04494507062072065     9.998351320809462+0.037545875737198565i
0.031236323268193672      -0.0390421837079447      9.998568355887814+0.03261394154565613i
0.020625534682305328      -0.034741747210421434    9.998726595325122+0.029018980658307093i
-0.0390421837079447       -0.031236323268193672    9.998855344383227+0.02609235012238768i
-0.028902516036850862     -0.02799454476993259     9.998974586873347+0.023383023533091355i
0.03904225996644282       -0.03123622795269456     9.998855369322364+0.026091911833883253i
0.028239167673035487      -0.02852193240538412     9.998955203930647+0.023823528531347806i
0.03426123160606659       -0.02131974764629513     9.999219906045226+0.01780770368155409i
0.044945122922415245      -0.021907439957443337    9.999198367117874+0.018297632030597637i
-0.03629921311157199      -0.022316607631850047    9.999183271186306+0.018640323888732963i
-0.04494507062072065      -0.02190754725884285     9.999198296146664+0.018298809045533618i
-0.038365431060655174     -0.013213778691250653    9.999517804164823+0.011037304281333779i
-0.04865695890244647      -0.011510879652121941    9.999580401663088+0.009614736446571934i
0.03973752794590771       -0.014605324412211618    9.999466664463524+0.012199562345368696i
0.04865686788594568       -0.011511264375802868    9.999580556779195+0.009612375913201403i
0.04050245573207107       -0.006124547014408487    9.999778321462628+0.005116334366889703i
0.05                      0                        10.000003345260174+1.7525155605571906E-6i
-0.0418406543304712       -0.004639395717597255    9.999832909169173+0.0038757757749518632i
-0.05                     0                        10.000003541531614-1.3070606653957648E-6i
-0.04008614961270931      0.0042958887487078955    10.000161366247497-0.0035885834141544544i
-0.04865686788594568      0.011511264375802868     10.000426343936576-0.00961214629113108i
-0.0394335574195311       0.013464316254026576     10.000498305069266-0.011246323285228968i
-0.044945122922415245     0.021907439957443337     10.000808515589636-0.018297104737776893i
-0.03391175625955506      0.020395039322016        10.000753009442649-0.017035075165311164i
-0.03904225996644282      0.03123622795269456      10.00115151309722-0.02609137918459319i
0.04144622117221289       0.0030456789628740205    10.000115399379778-0.0025440476489048598i
0.04865695890244647       0.011510879652121941     10.000426472495214-0.009614099558419445i
0.04494507062072065       0.02190754725884285      10.000808584364675-0.018298241386809785i
0.037683889306442536      0.013172049117694321     10.000487563143677-0.01100220874263301i
0.03566386183408023       0.021394117786090155     10.000789726399947-0.01786956433965385i
0.0390421837079447        0.031236323268193672     10.001151537021018-0.02609178019570101i
-0.029069098265885444     0.028827243897026348     10.00106291529887-0.0240782533894821i
-0.031236323268193672     0.0390421837079447       10.001438549204941-0.032613734990519117i
-0.02190754725884285      0.04494507062072065      10.001655559159445-0.03754526861339964i
-0.02077667870346191      0.03319112914976847      10.00122331710218-0.027723555955125632i
-0.013310283199382376     0.039220003860721386     10.001444909851951-0.03275953482725339i
-0.011510879652121941     0.04865695890244647      10.001792182893972-0.040648830283148966i
0.03123622795269456       0.03904225996644282      10.001438528872436-0.032613486989297724i
0.02879225497302286       0.027235305035840176     10.001004405910741-0.02274854672873206i
0                         0.05                     10.001841446966251-0.041769052706807884i
-0.0039188096053217785    0.03910340284951266      10.00144064110476-0.03266241791394194i
0.005505293154523942      0.041333985821389925     10.001522598744627-0.03452520710502071i
0.011511264375802868      0.04865686788594568      10.001791970933338-0.04064550821303878i
0.023068305249670143      0.03578802606938222      10.001318744580237-0.029892434408884i
0.021907439957443337      0.044945122922415245     10.001655530580498-0.037544848460035626i
0.014015779799636105      0.03715159899156458      10.001368870282171-0.031031558915342237i
-7.619169492410579        -4.598637900502739       0.22128932022333006
-8                        -4.418327574112066       0.22615135334880798
-8                        -5                       0.2211326073990929
-7.407407407407416        -5                       0.21611469346142131
-7.58462937173334         -4.108890839356425       0.23001614655671118
-8                        -3.836655148224132       0.2424427353781061
-7.103810682912137        -4.465971089045207       0.2131229358337396
-6.814814814814824        -5                       0.20218956072637073
-7.55398508220846         -3.5784420453230776      0.24888085089058157
-8                        -3.254982722336198       0.27448823873945566
-7.119961607939943        -3.861243164402359       0.2254285298319001
-7.1326911462301235       -3.337181779564581       0.24485069642303078
-6.712034337837762        -4.074802454194591       0.2059232349164642
-6.499116794993899        -4.499940300555014       0.1935928594019821
-6.22222222222223         -5                       0.18211609009115107
-7.554552138890311        -3.03129023824512        0.2836522940176249
-7.139900239860307        -2.839490351685323       0.27279468769855675
-8                        -2.681285058837913       0.33231804037202667
-6.786517225941144        -2.3411107568579745      0.25968303435749146
-7.058608129764823        -2.492783164514292       0.2885251287435432
-6.718629947407376        -2.6730236121472464      0.24135289851379807
-6.8107112901731774       -2.042996776591234       0.27028101998230786
-6.460876007661806        -2.152548777922976       0.21370322157737845
-6.615715792305118        -1.8030508397595524      0.22675272142485353
-6.238450944693447        -1.937208660993829       0.1749520569984565
-6.621736023062674        -3.5482064685258843      0.21124514847708056
-6.695708295517437        -3.062308361954451       0.2277812895688626
-6.250546390193092        -3.975244384705106       0.18734558094970472
-6.223943044372067        -3.5809444755106363      0.1891918804154095
-5.951266012666158        -4.514016197386705       0.1722567287550758
-5.629629629629637        -5                       0.1591943987398378
-7.500736365042966        -2.4963594717236246      0.33664854172449893
-7.161724728640445        -2.1576686311628097      0.33172649174630786
-7.005048122117275        -1.797330417913156       0.3194334892827037
-8                        -2.1739568666708937      0.4276191832364165
-6.878494520148092        -1.53094642171426        0.2716032147905924
-6.565449262993921        -1.5203684061813632      0.1906192391409605
-6.351157489510836        -1.6370837221043286      0.16695026602538765
-6.082821145143187        -1.6925359210056796      0.1378702771631433
-6.367188885042041        -2.45176279387215        0.2059878993263722
-6.289274031891437        -2.797584308071456       0.19891210971144888
-5.856164405528168        -1.8918792867397651      0.13113550374232533
-6.055839081128238        -2.204389142643474       0.16701684515101764
-6.19250103809643         -3.22093265794509        0.18982678529335756
-5.860751688788386        -3.6076576590938685      0.16960940425480434
-5.666873014752772        -4.071142866825899       0.16054865438355634
-5.358310518967524        -4.540610953688661       0.14822879724417456
-5.037037037037043        -5                       0.13620977223348088
-7.617585022726131        -1.9862210315806261      0.44734750045630917
-7.188432208101636        -1.4923132631253537      0.39323048063004723
-7.038775225866327        -1.339521368593309       0.30718113354528676
-7.174927954173461        -1.2839674758543884      0.3706775893539412
-7.367966895390936        -1.7375735921710402      0.4421671099863849
-8                        -1.7770508616229572      0.5659979239171592
-7.050888528737978        -1.1656625290832143      0.26657384489693653
-7.239033618792962        -1.1405764578272648      0.37956069029538436
-6.880640016691944        -1.2757110528206912      0.22932225342203202
-6.69587018169165         -1.3282688332047432      0.187905319873555
-6.901304344173652        -1.1088577968623525      0.18378116159091482
-6.364494965297631        -1.444956354861973       0.14542354770909988
-6.486859291613664        -1.2811186068199283      0.13678763132714855
-6.186125425356664        -1.4844180742533606      0.12737643897520023
-5.875175995742134        -1.6403969930407585      0.11298853197819472
-5.9884613221411325       -1.4871605319419794      0.10747675637515815
-5.679914358702026        -1.6724464487153563      0.10066866207352264
-5.528729814387777        -1.8545875246110313      0.1037505204578371
-5.492157897155563        -1.6493940937323788      0.08696881016456164
-5.893744902022436        -2.5399188458288355      0.1625741923962496
-5.883846823696433        -2.883943354474815       0.1677063503121433
-5.539619679872459        -2.229911128250037       0.12502399438501463
-5.6302329394175015       -3.1923084166913926      0.15484974967488926
-5.3376378845891805       -3.6109021795133303      0.14348583996972855
-5.055562384369953        -4.0708088953683665      0.13443019944894322
-4.758315000145677        -4.530940945448407       0.1251749387447432
-4.44444444444445         -5                       0.11501570829713681
-7.358414885959692        -1.2929916387047011      0.50689554086376
-7.406675511023521        -0.9721430839231832      0.48598484699634453
-7.3934380382579326       -1.1089835354487674      0.5325689595867984
-7.2802806031197225       -1.0005209721616395      0.33953072180470784
-7.7075460880010995       -1.6263408428959296      0.5990881538309059
-7.493474367845286        -1.4612900701994704      0.571646354419099
-8                        -1.4658299786020534      0.7663635149765154
-7.134456017580512        -1.0107914737246595      0.23476641830211098
-6.987082523886988        -1.0002120778998362      0.16249004164261424
-6.770387516401133        -1.1422414444044124      0.158564030736663
-6.61586954294077         -1.1409159156918713      0.12623772520825838
-6.831996900026685        -0.9945723250060172      0.11810040716155858
-6.4848736778835585       -1.0948854649589         0.0952269820037171
-6.278530832664324        -1.2970518072306934      0.11126449922743885
-6.352772018823026        -1.1448087640686533      0.09149137538567903
-6.076357425353197        -1.2828358577005636      0.08919557071667504
-5.773463864785286        -1.4810189677089998      0.08990112065717008
-5.869719569183269        -1.3106870010110034      0.0776227233464395
-5.571587092294165        -1.483423100620896       0.07770692641181189
-5.292916779312078        -1.9520228147509477      0.0957168521142583
-5.311605765756363        -1.7318713754777022      0.08317396978219431
-5.3689598505334475       -1.5046284141618176      0.06938862205792307
-5.41348120705436         -2.6689725438373024      0.1324018297753908
-5.050238940813328        -2.190723733332455       0.09525048435473156
-5.062633575782919        -3.146168646074866       0.12442955960257296
-4.756086392310923        -3.6057487412940605      0.11818045794149033
-4.456555105305502        -4.066822556171225       0.11179888884468316
-4.154717720143363        -4.533734918653978       0.10468192816800216
-3.8518518518518565       -5                       0.09657414895267817
-7.49175330358929         -0.9299197443437588      0.6401381066970989
-7.430243121922393        -0.8586324990489296      0.3746367413411842
-7.324260595197066        -0.8677398716618987      0.23061342803432341
-7.194714219646424        -0.8793467033449939      0.1553611495999387
-7.524975177533437        -1.0283616350098765      0.7454174525254559
-7.562511680008647        -0.9342987169759901      0.8588725286297608
-7.596234215818841        -1.1775664488216955      0.7988433761826678
-7.768322209378627        -1.336675054523116       0.824868407661319
-7.534361016820844        -0.8561627837013678      0.7342564553387909
-7.605833315281793        -0.8820403317263615      1.0467183613555002
-7.5                      -0.75                    0
-8                        -1.203555544390462       1.0815723637110677
-7.054736613755288        -0.8784301075638464      0.10425192575990971
-6.907217171273972        -0.8729363395011878      0.07168808076052835
-6.6957425427034645       -1.0042575379122902      0.09743529856020407
-6.5604531710701          -0.9937822803747078      0.076712404280868
-6.763781784682397        -0.8744593411963928      0.055358173582225716
-6.410598421063159        -0.9962728421763776      0.0635331177690666
-6.204612976820752        -1.1440383363766065      0.07763602821367971
-6.277923920827636        -1.0048649258613158      0.05604418914269533
-6.070701539458059        -1.1007666769884517      0.0608940122767971
-5.936350311848178        -1.1557285761018496      0.06145353061721066
-5.7858508094047725       -1.1445265192883172      0.05253571658818162
-5.660584892079312        -1.2830825109371078      0.06274028864561486
-5.45448606588517         -1.309886538019171       0.05639495170584658
-5.65239866793539         -1.0989467933350565      0.041941501324429024
-5.0793249800135225       -1.8060975639775612      0.0770114860655947
-5.166047920341836        -1.5358656260900643      0.06326906494169555
-4.776895513872216        -1.843239126560387       0.06742987820037483
-5.23979510486358         -1.2888742136161304      0.04710140353922711
-4.582863880657401        -1.674630151035349       0.05300414497489183
-4.488440281253783        -1.8359679444667236      0.05818531242599495
-4.423819180900164        -1.6645117913693548      0.048560881453732954
-4.77448518725655         -2.6620316214909407      0.09992048356389531
-4.47591720125644         -2.170628923942824       0.07187391270147647
-4.463877844069006        -3.1370483736221635      0.09937884244360519
-4.16078760351852         -3.607692337101958       0.09689666631212891
-3.8612313745192797       -4.0761405886656314      0.09297346087035564
-3.5605070247350747       -4.539767534040872       0.08768953607433087
-3.259259259259263        -5                       0.08121787266120446
-7.386851504217098        -0.75                    0
-7.253745713548048        -0.75                    0
-7.11430348904341         -0.75                    0
-7.655635586817882        -0.9750090900985864      1.1010960083739343
-7.808385376386516        -1.087342407661191       1.1917899678609605
-7.603356950471252        -0.7953253174665701      1.1433468093550863
-7.675575671257759        -0.8514528281583071      1.3986983427219912
-7.5970156348363655       -0.6987349090965711      1.4223177739407593
-7.5                      -0.6499999999999999      0
-8                        -0.963976389492665       1.638683309347044
-6.974807342199423        -0.75                    0
-6.835311195355436        -0.75                    0
-6.626610698783615        -0.8743794093183077      0.04423359191706227
-6.486239586124515        -0.8731536579277049      0.03579415250485262
-6.695815048511449        -0.75                    0
-6.34626277725089         -0.8748472109992904      0.030308868432657645
-6.144632346827047        -0.9944297679364491      0.04655408067481229
-6.208664984180937        -0.8747926336105185      0.02581963284908767
-5.991060466646627        -1.0020967166343475      0.04114195018071982
-5.860508464278634        -1.011787277684042       0.03784227451634318
-5.726297365562652        -0.9963810343457679      0.031786746278261384
-5.516745729532657        -1.1527975408763216      0.043362882429808854
-5.3696387322621915       -1.145793302569603       0.038374659593344816
-5.573849696749143        -0.9978179824422286      0.0282940857260562
-5.232018741782919        -1.1008750787438244      0.031116919598033706
-4.9542029513260815       -1.5640114521051744      0.05766627050327089
-5.042398869558023        -1.3197107372019996      0.04386140292193449
-4.729852859210238        -1.5321602036459514      0.04922380658998234
-5.096623205104409        -1.1525230651320204      0.032576495777517485
-4.9500695911152075       -1.1507722147546244      0.02966498959322861
-4.18349579953374         -1.8207486665142318      0.04996873738793018
-4.5044824257226335       -1.5005468822309809      0.04221127164609026
-4.287478658729972        -1.5282833128465454      0.03928954793808775
-3.947752731476205        -1.6777725922245572      0.03965631466491805
-3.8678743483092464       -1.8520340655575902      0.04477714671633363
-4.1669322349314335       -2.6592861987777043      0.0780646433245285
-3.8909324511340193       -2.1824051764573245      0.05651182823865901
-3.566144143590391        -1.8948421654342993      0.04106169349188388
-3.8626757761715242       -3.1477734423708768      0.08039347268462925
-3.5661611155997983       -3.623192371413457       0.08007654916339214
-3.2686596778134227       -4.0856338146123035      0.07774676334436519
-2.9678307747373616       -4.543999476003862       0.07391386737334261
-2.6666666666666696       -5                       0.0689166393799017
-7.3885350493463235       -0.6499999999999999      0
-7.43123759546378         -0.536808116225601       2.147338833302048
-7.8077949900311445       -0.8666164560433622      1.7777748262259654
-7.698521949627558        -0.7485550919148457      1.8803350256497087
-7.6825727594141275       -0.6387615772298914      2.4872225414075624
-7.596536726832885        -0.6068235884438156      2.1672100477048537
-7.545623858458531        -0.5260465116194988      2.8403020928227707
-8                        -0.7414110796047844      2.628948430585333
-6.556318901667462        -0.75                    0
-6.416822754823475        -0.75                    0
-6.277326607979488        -0.75                    0
-6.0680125245745105       -0.874616302092772       0.02221269588568991
-6.137830461135501        -0.75                    0
-5.927882973802286        -0.8775133606687543      0.0198297223436204
-5.790543905574904        -0.8765798676013637      0.017396475694904923
-5.650288401923554        -0.8739096536727472      0.015144278280250755
-5.441127810905219        -1.0071912666047946      0.02656491396055693
-5.307648296348648        -0.9946254320596886      0.02300848417382723
-5.507452577191575        -0.8767879815813168      0.013857968562575804
-5.152581129887841        -0.9988747935863931      0.021100787685301773
-4.820134083246798        -1.2978329211305932      0.037149346330621315
-4.606234813651641        -1.315661416485725       0.03410102213032639
-4.812894566267522        -1.103195850729085       0.024215488143947687
-5.021812681318819        -1.0083315758278373      0.02015562658436627
-4.88847387674132         -0.9959458335682337      0.017718443768574597
-4.079538779318305        -1.5308123416337835      0.03581952400435869
-4.396645161186386        -1.2880344180029595      0.02920800291232905
-4.182520989440761        -1.3184344897569087      0.02777804590597378
-3.747958223158491        -1.6772261035953324      0.036457644243897754
-3.8598765819473475       -1.507995489476287       0.031651740714453085
-3.557971751318799        -1.630014532343738       0.03218270847362786
-3.3735788453192397       -1.6949802276171162      0.03203718716087076
-3.1330606342276504       -1.7201229817506885      0.03006960552794385
-3.248335130523907        -1.910194967209179       0.03691889079146011
-3.573289785378603        -2.6955213048964985      0.06345650296169851
-3.2632636542956983       -2.251878772216859       0.04646478853722165
-3.2742157765901045       -3.1805672268078595      0.06660053055228275
-2.9767056586963307       -3.6368943053583282      0.06700699774046381
-2.6777307420636105       -4.091963154674266       0.06574745402496344
-2.3761383271653207       -4.546502406944331       0.06314236445228848
-2.074074074074076        -5                       0.05947380083443534
-7.481629508603542        -0.434106192958283       3.926929863994435
-7.257558114957555        -0.6499999999999999      0
-7.305675227709593        -0.5347719400582357      1.9427893817239639
-7.365347776379499        -0.42353934159148277     3.8173113533800667
-7.118101309697774        -0.6499999999999999      0
-7.183900705254924        -0.5278830235035114      1.9659014329198417
-6.978530695782135        -0.6499999999999999      0
-7.050407038366544        -0.5259690493830417      1.9514163723477027
-6.838960081866496        -0.65                    0
-6.910208126014328        -0.5283134984047426      1.892969493490926
-7.824815691754707        -0.6404394634943723      3.067745397835193
-7.690178675038722        -0.5007209321438969      3.864487908123689
-7.574160644812252        -0.42782023994539603     4.317143768316161
-8                        -0.5203362555764333      4.279962960310136
-6.699389467950858        -0.6499999999999999      0
-6.770249283135719        -0.5261540910610338      1.9159394236678253
-6.5598188540352185       -0.6499999999999999      0
-6.633100442266632        -0.5246475847377184      1.933997994966225
-6.420248240119579        -0.6499999999999999      0
-6.49466337614851         -0.5242780475913035      1.937009607280063
-5.9983343142915135       -0.75                    0
-5.8588381674475265       -0.75                    0
-5.7193420206035395       -0.75                    0
-5.579845873759552        -0.75                    0
-5.371431833347109        -0.8753253600996113      0.01239779815524268
-5.231159008433779        -0.8733474810929277      0.011074235659153399
-5.440349726915565        -0.75                    0
-5.090271439023444        -0.8760608485090057      0.0103211862521793
-4.677968336884676        -1.1535154105844476      0.025582220196584963
-4.534288743869314        -1.1515904631977076      0.02358799465565448
-4.735494031335967        -1.0008511883687974      0.016549553237919786
-4.952856846040687        -0.8758126994167466      0.0094588931557866
-4.812355840297049        -0.8745424151958715      0.008617850077605205
-3.962650306011951        -1.2901035915659516      0.023921803520013225
-4.392971396732756        -1.1074924283796208      0.019579395127914106
-4.258902298487494        -1.153824540158684       0.020658959324532256
-4.114904117070421        -1.1549612583216264      0.01935220043321236
-3.972265678631644        -1.1137955644676505      0.01631838293726894
-3.7613453281465823       -1.3021658743510842      0.022404278540650635
-3.657644992483676        -1.4804773400574718      0.02809495534099866
-3.4561147685522715       -1.4846540363468252      0.02607445504087098
-3.248254368177765        -1.500649880190018       0.02460262404068249
-3.0392960860681364       -1.4989455885614023      0.022769046938710822
-2.9367558662252025       -1.671930712430362       0.02677912426426681
-2.8799463945738153       -1.927002634535472       0.03293876430184414
-2.7782194596568255       -1.6783944800740536      0.02557143235483158
-2.972820038101825        -2.753559618741406       0.05301745927102941
-2.64776288778114         -2.415968455482189       0.041447545915487244