% Model:              VLR_3_01V03.mph
% Version:            COMSOL 5.5.0.292
% Date:               Jun 7 2020, 21:13
% Dimension:          2
% Nodes:              2784
% Expressions:        1
% Description:        Electric potential
% Length unit:        cm
% x                       y                        V2 (V)
0.08998929695878763       0.043611081537415886     10.000125198754601-0.003582613560722973i
0.09740027152773081       0.022653633402266993     10.000060930014325-0.0018615123638832734i
0.11052914318140596       0.04435296718065007      10.032383767618477-0.0025680386979610205i
0.0781315280452624        0.06241365495876985      10.000182868522032-0.005126950782259781i
0.09843315168703837       0.06504808237939746      10.045344508947961-0.003838151403269646i
0.1                       0                        9.999991418474949-4.470211664102061E-7i
0.11867780533938196       0.007142575818807732     10.005177538406945-4.146495936184216E-4i
0.0825814401453644        0.08344265441103638      10.056688020307888-0.004973038921425379i
0.06241327189725422       0.0781318340440017       10.000231082171085-0.006418052648291588i
0.0974002565227635        -0.02265369791667273     9.999921877309884+0.0018611685323768324i
0.11708271641142108       -0.017444375454459614    9.987611181149658+0.0010216549307215086i
0.06344080778484039       0.09892906268156314      10.067587023736822-0.005883606640849388i
0.04361064313298144       0.08998950941930808      10.000267454540966-0.007392072858506796i
0.08998969521077675       -0.043610259754689656    9.999857598812413+0.0035824267235490446i
0.11081829722056785       -0.04097541239487916     9.971219165424953+0.0024105772897215784i
0.04142563473442876       0.11036807069456671      10.07661813093499-0.0065235520526689865i
0.02265419578313888       0.09740014072586965      10.000290185311261-0.008000798759634994i
0.09903207576112977       -0.06347358419611365     9.956425930486676+0.003767934013882783i
0.07813204699441734       -0.06241300531509565     9.999799927964498+0.005126796870161763i
0.08286038732078894       -0.08319553555712846     9.943413658469451+0.004956409576548874i
0.06241385453272508       -0.07813136861957454     9.999751716688893+0.006417873108406595i
0.01715740354886006       0.11725149730849332      10.083543029776726-0.006858977499709852i
0                         0.1                      10.000298148040583-0.008214164739302384i
-0.0064740559030428335    0.11848803093970481      10.085019918905276-0.006911423943832147i
-0.02265421350800062      0.09740013660326112      10.000290154050111-0.008000223184458633i
0.06306868893423338       -0.09928785839661304     9.931843207119003+0.005894482038583011i
0.043611234888071976      -0.08998922264103305     9.999715344788616+0.007391912868633433i
0.022653716388030657      -0.09740025222662757     9.999692601683353+0.0080009239588314i
0.03987009553321275       -0.11193625563233207     9.919149721056053+0.006511895611978256i
-0.04361161765327609      0.08998903714155662      10.000267435650501-0.007391692892104702i
-0.0434681024396428       0.11071218458539905      10.080337317176598-0.006427681964097967i
-0.062414122765496065     0.07813115434584073      10.000231074688074-0.00641783600213855i
-0.06463337055632401      0.098515307987449        10.068207917399276-0.005828663099705242i
-0.08301512227585264      0.08244129824074012      10.054989133367075-0.004947073129107673i
-0.07813220659018694      0.062412805523773304     10.00018286602413-0.00512680860559177i
-0.09865856047849957      0.06290190099352708      10.041968541555768-0.003773888776206998i
-0.08998976940816245      0.04361010664818135      10.00012519236742-0.0035823943336980705i
-0.11026640506571476      0.04061354722724132      10.027720016924397-0.002415621481774375i
-0.09740027579126098      0.02265361507102783      10.000060917890234-0.0018612012986783607i
0                         -0.1                     9.999684619066585+0.008214663172067486i
0.01163165568303054       -0.12150299204406163     9.90115524963778+0.006699091253746437i
-0.11724412668197655      0.01683037576614881      10.011969209761988-9.845788930070746E-4i
-0.1                      0                        9.99999137564933+4.164084346482195E-7i
-0.11839634501386981      -0.006563024507970247    9.9952910963979+3.83160142435281E-4i
-0.09740025222662757      -0.022653716388030657    9.999921860861031+0.001861545724739855i
-0.02265369791667273      -0.0974002565227635      9.99969261413436+0.008000682023636792i
-0.01703370475917194      -0.11657424948482137     9.91932982580208+0.00689958748076856i
-0.04125249556134633      -0.10951571589360319     9.926819541371943+0.006568586400164017i
-0.043610259754689656     -0.08998969521077675     9.999715338195376+0.0073920842384617895i
-0.08998922264103305      -0.043611234888071976    9.99985759209726+0.003582655946719426i
-0.11059231205095632      -0.04353742504443414     9.968505055429256+0.0025311436999345574i
-0.0633442250360934       -0.09844689973531524     9.934100871766036+0.005900782396746586i
-0.06241300531509565      -0.07813204699441734     9.99975170628192+0.006418143846968021i
-0.08301622064827016      -0.08301712296082947     9.943569574080046+0.004947190123642597i
-0.07813136861957454      -0.06241385453272508     9.999799920987167+0.005127018412205471i
-0.09863835650121516      -0.06444571340439449     9.955365606433688+0.0038128410128535043i
0.04865695890244647       0.011510879652121941     10.000056975546451-0.0015125742645463347i
0.04494507062072065       0.02190754725884285      10.00011620495147-0.002878673575968068i
0.037683889306442536      0.013172049117694321     10.000066442147086-0.0017308901355734287i
0.03566386183408023       0.021394117786090155     10.000113278496206-0.0028111852424729886i
0.0390421837079447        0.031236323268193672     10.000169362108576-0.0041046390576690555i
0.04144622117221289       0.0030456789628740205    10.000008754918639-4.0034195584630485E-4i
0.05                      0                        9.999991386652793+1.1830024248809793E-7i
0.04050245573207107       -0.006124547014408487    9.999956505072147+8.047263741966106E-4i
0.04865686788594568       -0.011511264375802868    9.999925850136696+0.0015119963121766895i
0.03123622795269456       0.03904225996644282      10.000213842804044-0.005130501913350022i
0.02879225497302286       0.027235305035840176     10.000146552194499-0.003578655635911186i
0.023068305249670143      0.03578802606938222      10.000195272794485-0.004702409506597194i
0.021907439957443337      0.044945122922415245     10.000247473464759-0.005906170525977133i
0.03973752794590771       -0.014605324412211618    9.999908195992024+0.0019189982461045682i
0.044945122922415245      -0.021907439957443337    9.999866607577127+0.0028782924699978503i
0.03426123160606659       -0.02131974764629513     9.999869947354158+0.002801218835123139i
0.03904225996644282       -0.03123622795269456     9.9998134418621+0.004104407150635434i
0.011511264375802868      0.04865686788594568      10.000268617190834-0.006393856326618731i
0.014015779799636105      0.03715159899156458      10.000203039262262-0.0048815531661533735i
0.005505293154523942      0.041333985821389925     10.000226864516097-0.005431085178924995i
0                         0.05                     10.000276283186402-0.006570548051232114i
-0.011510879652121941     0.04865695890244647      10.000268647207012-0.006394315171494573i
-0.0039188096053217785    0.03910340284951266      10.000214160176156-0.005138033011266086i
-0.013310283199382376     0.039220003860721386     10.000214821504205-0.005153295773387284i
-0.02190754725884285      0.04494507062072065      10.000247472174415-0.005906114464756344i
-0.031236323268193672     0.0390421837079447       10.000213837763432-0.005130366344656772i
-0.02077667870346191      0.03319112914976847      10.000180475483626-0.004361103365478716i
0.031236323268193672      -0.0390421837079447      9.999768955876153+0.005130362438332531i
0.028239167673035487      -0.02852193240538412     9.999828918253172+0.0037475610521803156i
-0.029069098265885444     0.028827243897026348     10.000155613855853-0.0037876705694882607i
-0.03904225996644282      0.03123622795269456      10.00016934818927-0.004104358803361815i
-0.044945122922415245     0.021907439957443337     10.000116182714473-0.0028782478459128953i
-0.03391175625955506      0.020395039322016        10.000107578030322-0.0026797180677825805i
0.02190754725884285       -0.04494507062072065     9.999735317702932+0.005906171203130579i
0.020625534682305328      -0.034741747210421434    9.999793484570576+0.004564842573519984i
0.013350891724150916      -0.03953296223484311     9.99976618973271+0.00519440445636449i
0.011510879652121941      -0.04865695890244647     9.99971416272103+0.00639406138422156i
-0.0394335574195311       0.013464316254026576     10.000068097850685-0.0017690875684513313i
-0.04865686788594568      0.011511264375802868     10.000056943420695-0.0015120055549465534i
-0.04008614961270931      0.0042958887487078955    10.00001587023329-5.644438234277345E-4i
-0.05                     0                        9.999991405364781-1.0324724996022884E-7i
0.004428180733670958      -0.03972992267247989     9.999765069221622+0.005220270069424109i
0                         -0.05                    9.999706538053818+0.006570123891164778i
-0.00509587741559925      -0.0410670399964869      9.999757451107891+0.005395982536198073i
-0.011511264375802868     -0.04865686788594568     9.999714160812593+0.006394100913328417i
-0.0418406543304712       -0.004639395717597255    9.9999649569025+6.097849444262496E-4i
-0.04865695890244647      -0.011510879652121941    9.99992581497529+0.00151261217729864i
-0.038365431060655174     -0.013213778691250653    9.999916114249762+0.0017363578632533909i
-0.04494507062072065      -0.02190754725884285     9.999866586636712+0.002878699474664058i
-0.021907439957443337     -0.044945122922415245    9.999735312729321+0.0059062817558629245i
-0.013580156694836969     -0.03727148349138352     9.999779069742411+0.004897324860940042i
-0.022929265813663627     -0.03549534736926449     9.999789186690725+0.004663968651438981i
-0.03123622795269456      -0.03904225996644282     9.99976894857699+0.005130533276743258i
-0.03629921311157199      -0.022316607631850047    9.999864260434912+0.0029323800736594206i
-0.0390421837079447       -0.031236323268193672    9.999813429312491+0.004104670077714476i
-0.028902516036850862     -0.02799454476993259     9.9998319159504+0.0036784129927643103i
3.739338923278618         4.280172670066005        19.592020596226018-1.1228754292124066E-6i
3.879862769971442         4.276635566285411        19.424698114219343-1.6119296474942815E-6i
3.8016151559625255        4.403222110593403        19.36086318444873-1.744185177967328E-6i
3.959221729613508         4.38888766222818         19.12700225352124-2.4095804496941696E-6i
3.9067788309754734        4.488352658088754        19.119891844142472-2.3842372028076993E-6i
4.016296814768528         4.278633714475319        19.149888522693903-2.4243019655608083E-6i
4.0643131442461815        4.519413108239709        18.813322515172107-3.1974240344192316E-6i
4.083640692164292         4.381835167379991        18.873308816668263-3.1276626585641807E-6i
4.071097986275381         4.172685519849078        19.159759737648297-2.5274435234563913E-6i
3.945387027387387         4.1643714805667384       19.550132862236975-1.3139201258006025E-6i
3.816502541672155         4.160134679916224        19.735828452087844-7.445138060814292E-7i
3.6833708426313194        4.155897792985372        19.8238253799948-4.858959012479568E-7i
3.6150822038950765        4.239623240198269        19.73945342885413-7.109130767392361E-7i
3.495041210443651         4.2792431277135545       19.757285237082623-6.563537313263193E-7i
3.599916173907295         4.416000291154227        19.559741921748323-1.1886849393753496E-6i
3.7448568509584717        4.54164150838959         19.305184243547476-1.8663185495834425E-6i
3.934513364003888         4.729992558515695        18.93300786520918-2.8156745560541894E-6i
3.7411471750929257        4.718557692788818        19.207666098383562-2.1034616117112405E-6i
4                         4.05                     20
4.118858757691507         4.078777828051864        19.067335102097825-3.01887806742021E-6i
4.105408504384495         3.9907289445087457       19.11807913278173-3.141024624173501E-6i
4.203388097558426         4.037864092380172        18.67862036892814-4.360109117422095E-6i
4.158570683199161         4.287386890542519        18.75978806457219-3.5503320920120483E-6i
4.082031373102218         5                        18.64972961044235-3.4968829303448064E-6i
4.236384462305516         4.683141311660714        18.413608073293485-4.129374333823254E-6i
4.4185160951638345        5                        18.04336018906593-4.905810888332985E-6i
4.2201443542662025        4.436829101693535        18.52261133523358-4.024369989749824E-6i
4.2189139175801085        4.1601189363288205       18.634408938776236-4.139850864619919E-6i
4.208272502759771         3.9436065188016505       18.55705085172301-5.122249496785018E-6i
4.571961925208333         4.7171412169132605       17.747588997375203-5.6116041121439705E-6i
4.755000817225451         5                        17.41088274696342-6.192069012756788E-6i
3.551506162711689         4.155456167731733        19.869806436089906-3.5451621555685487E-7i
3.415100469272552         4.157660318079351        19.89896647871444-2.7290851390108464E-7i
3.359171334488641         4.258731148638811        19.827799928084527-4.63407389849968E-7i
3.8889104351460464        4.05                     20
3.758427205658066         4.05                     20
3.61936801857231          4.05                     20
3.391058997512096         4.445906987249127        19.679915481262388-8.582554361628172E-7i
3.230805130965347         4.32244486642327         19.825035615971867-4.689355555884225E-7i
2.915211054740462         4.264302768528605        19.918799601978378-2.1692050990874645E-7i
3.04772196960921          4.316224435367335        19.875244082871102-3.3355517446651657E-7i
2.895790507369096         4.410191232793222        19.873368469461635-3.380345238937176E-7i
3.4937760572554657        4.704008593000232        19.472127720435918-1.405716680770176E-6i
3.742224213565717         5                        19.14944493277513-2.2416317738097146E-6i
4.116998035830199         3.8932429770354293       18.85541870412821-4.506073475782425E-6i
4                         3.95                     20
4.282057574297919         3.994886120132364        18.336737901461476-5.508175466564257E-6i
4.291553977929286         4.07740242989358         18.36630035989846-5.12411603984873E-6i
4.329799957740634         4.29973255160562         18.28339627029516-4.821915856238355E-6i
4.446963967866372         4.45989228742031         17.997455861104868-5.2878657424211035E-6i
4.349062213428281         4.151077236032528        18.21172359936024-5.3213292401259804E-6i
4.217174583958948         3.845659297857603        18.333137649896873-6.332300720549101E-6i
4.1348206561387           3.8060167185235105       18.52276279346748-6.1533319192323355E-6i
4.324871367711556         3.9002763599753667       18.06817241195535-6.652384123038909E-6i
4.909672277784956         4.708251294193744        17.107835209381474-6.814536521022985E-6i
5.091676632715828         5                        16.818616165976017-7.182363784152209E-6i
4.737995207665333         4.432872271200663        17.368203513891597-6.627327726601176E-6i
3.2704143471768448        4.1651928773770095       19.917528245743394-2.2161655452906614E-7i
3.4801615563195325        4.05                     20
3.3409550940667545        4.05                     20
2.7940592291151574        4.285784273979929        19.927500808762662-1.9352979762651273E-7i
3.129660241977054         4.185050334327746        19.924955242837758-2.010304897307863E-7i
2.994080883950497         4.16947173986633         19.94737373138992-1.407299965623865E-7i
2.8544889794250823        4.160235524185021        19.961659443651257-1.0240989440907644E-7i
2.7249806106794034        4.4132717277415425       19.904147207158516-2.5571737401610984E-7i
2.674281083747179         4.268208296096484        19.94489313652625-1.4704136376525882E-7i
3.12000747644548          4.603919719924138        19.741515652072085-6.895674469483466E-7i
2.8256038994000203        4.585104224445539        19.845311093764032-4.1250425933789194E-7i
3.348227662100417         5                        19.53578976513715-1.233246021161318E-6i
4.039691474770305         3.821228625517377        18.911796354850996-4.93671486745839E-6i
3.8872480222625168        3.95                     20
3.931250997594006         3.8305087573988343       19.2591519723798-3.85211910385652E-6i
4.096720534465092         3.729790806142199        18.39625379246485-7.255903972944412E-6i
4.203518651668956         3.7401618860649446       18.117745211328103-7.711241232618472E-6i
4.411657530556231         4.0261177312967025       17.946688684848468-6.371497998951324E-6i
4.519565993816258         4.204291328296825        17.7685226381564-6.242771036162218E-6i
4.325303509738481         3.7742258513123343       17.843366658857107-7.95561102261823E-6i
4.4597709553552916        3.837213841131446        17.584843592494064-8.010984030911183E-6i
5.255846129808309         4.684162323969221        16.520526057393994-7.680116521458792E-6i
5.4376934553489455        5                        16.282492557491423-7.87041656268891E-6i
4.857351699763711         4.161605106803947        16.996377532577586-7.744243582439549E-6i
5.0602830818181825        4.409270522302228        16.75486822000762-7.632839232879326E-6i
7.6153606173139305        4.601107139948206        14.566696735203262-8.539786368042454E-6i
8                         5                        14.569670286881621-8.538468214885532E-6i
7.409780872709702         5                        14.653906689466716-8.56337034419985E-6i
8                         4.411764705882353        14.486694530739308-8.508327582535442E-6i
2.5530764997033084        4.341602086263266        19.940902723967852-1.576240988280753E-7i
3.201748631813976         4.05                     20
2.7227999316275215        4.164753811743607        19.96803862518901-8.531020958367254E-8i
2.5849182696192017        4.174294776200215        19.972544405905552-7.324858458285317E-8i
3.0625421695611985        4.05                     20
2.9233357073084205        4.05                     20
2.7841292450556425        4.05                     20
3.75460744771528          3.95                     20
3.8099511233487946        3.827478950749082        19.406058017066844-3.6268835961079215E-6i
3.6156191998335467        3.95                     20
3.6787515247751763        3.8226863509283007       19.469938064384603-3.776705426882207E-6i
3.4765569229168727        3.95                     20
3.541853533143582         3.8237813789776034       19.52517216235493-3.912519400646044E-6i
2.0858090831204184        4.2837565292830595       19.97784970809402-5.905473567571331E-8i
2.2175008740438997        4.322084655843108        19.968224654631594-8.472079102648236E-8i
2.089968902176409         4.401135944636948        19.967569767300237-8.645918944936398E-8i
2.5239039488341137        4.634044808623431        19.900437558367145-2.654246489489824E-7i
2.3637801077917735        4.369733937078471        19.953044410222535-1.252052030776541E-7i
2.2460292092476104        4.523981628831443        19.94592312954921-1.441683192356321E-7i
2.8640176231357355        5                        19.788593649057347-5.631918990514711E-7i
3.9905926744547333        3.716268716082168        18.619115177986917-7.0198207079769635E-6i
3.8722817783272667        3.702906842679209        18.786871124427964-7.0716686856605826E-6i
4.064705573934643         3.6172649510008927       18.106959673864775-9.29253759524479E-6i
4.174946195573888         3.619288277746956        17.86443971342582-9.48879865136099E-6i
4.306972516677031         3.629206097303797        17.578324071238715-9.661391527460781E-6i
4.665476756501251         3.934370015608001        17.20821766970283-8.148044419407567E-6i
4.447291136135276         3.6590894423397393       17.31441236403474-9.637648915763732E-6i
4.584025431488955         3.7292036462565354       17.1267029118937-9.305941184207225E-6i
5.80700941501795          5                        15.79922438809883-8.303376044319178E-6i
5.628344863298833         4.639249331947321        15.977777351068687-8.252853023776655E-6i
5.407406467883109         4.348202795372031        16.177660820549416-8.329702214830334E-6i
6.267356903828639         5                        15.320409626892001-8.54600925513982E-6i
6.039006346349694         4.5932722340201275       15.489872314328451-8.555553658222693E-6i
4.992324770965579         3.861930639562915        16.492704329921477-9.168902213148828E-6i
5.199209919113329         4.084690890479605        16.338649127447585-8.636926411934489E-6i
6.505984680485463         4.543640198393098        15.063795879433394-8.647933664645162E-6i
6.819561745419405         5                        14.911197872799553-8.601025063365542E-6i
7.104664668038066         4.480513052422154        14.695947705303068-8.59504200717596E-6i
7.56235754582189          4.11325794143652         14.425731967964806-8.496455209349966E-6i
8                         3.823529411764707        14.24207666370772-8.385488774668248E-6i
2.4480647578680594        4.197744178521113        19.974096072559092-6.90876940454533E-8i
2.2981541180941383        4.195952367673172        19.9800368981189-5.323264022466565E-8i
2.1559463682054734        4.181676973433024        19.985744762828222-3.800808587262152E-8i
1.9457710296561552        4.336142148948991        19.978755444335636-5.663664725352704E-8i
2.0120885090169445        4.190803604833135        19.987998092994967-3.199776003369613E-8i
3.3374946460001995        3.95                     20
3.405613214043065         3.8240985836245307       19.558875466699053-4.155726416168058E-6i
3.198432369083526         3.95                     20
3.270085250380614         3.8249217570501677       19.584343779481642-4.437554198884588E-6i
2.6449227828028645        4.05                     20
2.5057163205500865        4.05                     20
3.7434380140192873        3.6884072881510646       18.886431430529964-7.502812158972254E-6i
3.607857068340631         3.696165896199388        19.021843357158644-7.589160222562578E-6i
3.4670039701871533        3.6994559730487415       19.10581981682785-7.971150330766196E-6i
1.9474962030880578        4.593134085835704        19.96342066127163-9.751267685134925E-8i
1.7867395154398509        4.381157831530912        19.98131603942112-4.980847525954164E-8i
1.6659357831121588        4.535222783960445        19.978826646834545-5.644327528615707E-8i
1.6439672371278402        4.330925179338715        19.98728274635229-3.3901792379078056E-8i
1.5162656090300455        4.412707675549875        19.987003645256163-3.464535275747361E-8i
2.2827728508535188        5                        19.918662587032166-2.168025335521467E-7i
3.9396171949464516        3.5933795056415754       18.267711997735248-9.690951558881702E-6i
3.8188406656003293        3.5613978380525326       18.333673544382293-1.0606836070829071E-5i
4.016571981906962         3.5094667206153014       17.861183425602675-1.1368104256831624E-5i
4.124807058839344         3.493606699367334        17.61864346131627-1.1537985462343782E-5i
4.266199762003521         3.4801908923758          17.312847114044974-1.16385089450086E-5i
4.4246922435235385        3.5020295028522304       17.05215440091156-1.1297673014992801E-5i
4.78908566372697          3.6768827647670923       16.64147834542263-9.950460492305413E-6i
4.607660544495804         3.555734574268523        16.79870904221808-1.0764146223394374E-5i
5.789272798097047         4.236926942748141        15.628502721095698-8.749855677209793E-6i
5.509282639155009         4.034840536193282        15.854362996704676-8.975975483554711E-6i
6.170415423312063         4.143832119484334        15.189215144682807-8.854386827942252E-6i
5.0114835965671745        3.585629970510133        16.146654169124815-1.0450367598818088E-5i
5.32450924466948          3.6967792779262996       15.816446830006864-9.84663218127032E-6i
6.634902995964905         4.044223784431975        14.780129131208406-8.764927694191736E-6i
7.106631635049919         3.8324249254012885       14.42151289611307-8.584265601623937E-6i
7.547489347284508         3.5302113249404092       14.105044488046909-8.333395311168272E-6i
8                         3.2352941176470598       13.848180469568275-8.083256247336083E-6i
0.12056535044826479       0.026914980487632988     10.022943038545641-0.0014485034497212495i
0.13426138483595942       0.04218236462702644      10.051585268711134-0.0017490871719349902i
0.12296731351957309       0.06536472794435971      10.07822399510868-0.0027675916102878916i
2.3665098582973085        4.05                     20
2.2273033960445305        4.05                     20
2.0880969337917525        4.05                     20
1.8690731840519752        4.2089868616029165       19.989321242624737-2.84688416309307E-8i
1.7289246235937794        4.200463571176024        19.991965238644724-2.141955048813288E-8i
1.9488904715389745        4.05                     20
3.0593700921668523        3.95                     20
3.129924044985276         3.827251715278067        19.60901713943218-4.717763860344551E-6i
3.3406850025573567        3.696432059488214        19.141641264009237-8.610981738345079E-6i
3.2083622256142563        3.7017481839101904       19.195158195684396-9.082235744337565E-6i
2.9203078152501787        3.95                     20
2.989291259422771         3.8242239591410683       19.612697005351517-5.252402164960624E-6i
2.781245538333505         3.95                     20
2.8519127768323447        3.8224237634959293       19.617545751104633-5.783495809554117E-6i
2.6421832614168315        3.95                     20
2.7114225887840835        3.823798623519133        19.630117163332656-6.222202489824404E-6i
3.5289330455553864        3.5867853192305788       18.685896524292605-1.1101363841057908E-5i
3.661353686589409         3.5320153176497664       18.40010482537711-1.1948651286390893E-5i
3.409405035929343         3.5598816699068045       18.663036970806246-1.2640937639417023E-5i
1.5156398683929873        4.288040600962777        19.99117424388867-2.3527608274599745E-8i
1.3724952023198258        4.331211697596128        19.991822259825764-2.1799941893564197E-8i
1.5936062486233942        4.181711554583606        19.994352638486745-1.505483148644894E-8i
1.376436730131307         4.596614728685269        19.98556970870369-3.8467445250234234E-8i
1.2000128466913413        4.371105421212162        19.992998298685382-1.86647879985825E-8i
1.6926104804190238        5                        19.969253206414436-8.19618159621597E-8i
3.9163390404905476        3.458554285634567        17.860395721087755-1.263680024151674E-5i
3.7793941242564575        3.391736564586633        17.823487283639693-1.4760690749205582E-5i
4.037391041323826         3.384528161432139        17.45927612939146-1.3644354824573252E-5i
4.1931514190724055        3.3287416235841585       17.06628316533063-1.3971196086699257E-5i
4.372904567924406         3.307694383559818        16.72828381845027-1.361778878223806E-5i
4.547124933905195         3.3802616272657025       16.58949153686625-1.2397698073577398E-5i
4.8073813663843685        3.3778662818537084       16.166500060775522-1.1896007451248382E-5i
5.82353240716799          3.7826191876781814       15.295027605779552-9.371126895362626E-6i
6.2885819983149975        3.7677086633372125       14.859310063356697-9.072015613021883E-6i
5.178264292515948         3.3224350556646174       15.569384019997655-1.1385127200770101E-5i
5.588038891366562         3.3323999824099886       15.110756466826087-1.0495057071963212E-5i
6.634434408640699         3.499504106584922        14.426402478688987-8.886900464699478E-6i
7.081023992511386         3.233926032190198        14.00742685978656-8.445191736897802E-6i
7.534993528435685         2.9430057030720023       13.639939894119168-7.941184814041982E-6i
8                         2.647058823529412        13.324094881125168-7.4877246311353444E-6i
0.15219202365176268       0.06229702024216642      10.096946375186052-0.0018906900626200617i
0.15763769761580812       0.03637336359138872      10.055495747841507-0.0011408030286230286i
0.14167678059894195       0.017791128315960747     10.02240527954582-7.160205262240579E-4i
0.106712838010067         0.08806649284231574      10.103932818415112-0.0037777247285668424i
0.13569264108236676       0.09026773772438854      10.138980974873304-0.0027897322962752076i
0.17066873150812284       0.08897634539566454      10.160326398878498-0.0019711951407410315i
1.8096840092861968        4.05                     20
1.6704775470334186        4.05                     20
3.0538512670873263        3.705757060977097        19.239199065772855-9.784802963186821E-6i
3.2676157976748805        3.549023222707727        18.69051194863748-1.4052451205255367E-5i
3.1308632565717627        3.597495273888176        18.886905004917807-1.3425174609459401E-5i
2.503120984500158         3.95                     20
2.5709378212360297        3.822129290529766        19.63221498937943-6.85060885171379E-6i
2.3640587075834842        3.95                     20