% Model:              VLR_3_01V03.mph
% Version:            COMSOL 5.5.0.292
% Date:               Jun 7 2020, 21:13
% Dimension:          2
% Nodes:              4432
% Expressions:        1
% Description:        Electric potential
% Length unit:        cm
% x                       y                        V2 (V)
-1.956295342776008        -0.415822716831225       9.494008096739822+0.49730714669333675i
-1.969615612575539        -0.34729575105187127     9.577530126105637+0.415174704664812i
-2.023137829916343        -0.3961956666361184      9.489286818430545+0.4413471269930635i
-1.854368097503255        -0.7492122255824168      9.086485195659492+0.8988327083718454i
-1.8972986142533392       -0.80528724052606        8.957123898038184+0.9000583430765615i
-1.8270913727439153       -0.8134722586817302      9.007639423308843+0.9767053241766179i
-1.9405916361373317       -0.48384305487816526     9.411036309998734+0.5789442041764565i
-2.00905639493833         -0.46580994291348327     9.398750178408404+0.5186135985119177i
-1.8793856107560087       -0.6840392723252542      9.166339420729264+0.8200322879362855i
-1.925168192350494        -0.739268154802185       9.042644011358135+0.824739546396449i
-1.922523615986301        -0.5512739300701226      9.328706437197434+0.660001279776089i
-1.9928491855136707       -0.5341101785692813      9.309590985228633+0.594324762504515i
-1.9021133134226649       -0.6180331244361026      9.247110247684335+0.7403927938547854i
-1.950413520887485        -0.6714237363066422      9.130944947483462+0.7481999291576256i
-1.9729531617135447       -0.6025155047589551      9.220728994827693+0.6709555710242102i
-1.8688848326865217       -0.8707481714413231      8.870453769046039+0.9730799273880216i
-1.7975886712019693       -0.8767411072639045      8.929893354110849+1.053560900155243i
-1.8385041120374854       -0.935175224052863       8.784482715168563+1.044650724075009i
-1.7658958194126329       -0.9389419337642696      8.853337756705793+1.1293095819164745i
-1.7650583835454803       -1.0597450853252617      8.62426301544667+1.1908653759085757i
-1.6960970145702927       -1.059837212578299       8.7041614735171+1.2771210837906752i
-1.7320516530906418       -0.9999985355119151      8.778063933733204+1.2038599082508754i
-1.8051655804949334       -0.997886432570694       8.701494180112682+1.1155143577857938i
-1.6180348804555982       -1.1755692772563593      8.560831782329899+1.4194052593657667i
-1.6580759770092384       -1.1183845735992872      8.631720943655164+1.3490003719326122i
-1.690948918601523        -1.1843444091833661      8.45006463647355+1.3239097738741445i
-1.728614172694497        -1.1254941175696214      8.531420922178503+1.2598166672306215i
-1.5320900393664239       -1.2855738451268326      8.424061819949198+1.5554214447469785i
-1.576022722326162        -1.2313213953763789      8.491583090225445+1.4882427843108579i
-1.600722411981213        -1.2971217066533818      8.304712056948409+1.4592447653116862i
-1.6482548082787312       -1.2408707649733162      8.375988669868844+1.3902502205926852i
-1.4862908391530114       -1.3382598930887217      8.358355827589351+1.6208482878327046i
-1.5565701842810087       -1.3534519441991417      8.224464926184384+1.519364783898334i
-1.510203769161652        -1.4069821186119338      8.14923343020317+1.5780134990850867i
-1.4386809161800385       -1.3893153786737424      8.294551110393703+1.6844317914426805i
-1.4592667418604286       -1.457099072362988       8.084290205977156+1.6390395540985843i
-1.3893182052767965       -1.4386781865610048      8.232732382583233+1.746081430564127i
-1.4048082713595262       -1.506403882135183       8.021578883374206+1.700614107567138i
-1.3382628154045375       -1.4862882078875281      8.172983057332793+1.8057078315210984i
-1.2855768616442023       -1.5320875082073617      8.115384940763395+1.8632232066924772i
-1.3520179672346089       -1.556843369245873       7.947975764286148+1.7541372661493428i
-1.2981298080571584       -1.6029218799290263      7.883017272145522+1.8057321043876773i
-1.231324651550908        -1.576020178323563       8.06001833669283+1.9185413721939097i
-1.9805362028419167       -0.27834573686787656     9.66151056212659+0.33263084718368546i
-2.0360381191995547       -0.3254620556540812      9.580595919145013+0.3623109976880892i
-1.9890438248327997       -0.2090566021308754      9.745857773057319+0.24975866285079854i
-2.0482178988198045       -0.25354049595007255     9.67290316215705+0.28154693429911165i
-1.9951281187484384       -0.1395126868041629      9.83048013909476+0.16664067084566278i
-2.058460650102993        -0.180619128069933       9.76660851157829+0.1999593291324626i
-1.9987816601289903       -0.06979881898713512     9.915285788350054+0.08335920795603748i
-2.0640518142416124       -0.10821936258390591     9.860206638961527+0.11972103902841845i
-2                        0                        10.000184452675052-5.189582919899604E-6i
-2.063747282469154        -0.03726118707796482     9.952111175183447+0.041347237525633095i
-1.9987816782866166       0.06979829901750112      10.085082452465345-0.08336889548251081i
-2.0598592614494073       0.03450364079635532      10.0445592507227-0.03846644619063255i
-1.9951281897439634       0.13951167151523933      10.169887409162705-0.16664955944451695i
-2.057394311352236        0.10832765803823481      10.139519192165777-0.12075627557985702i
-1.989043884471589        0.20905603470402634      10.254510176896181-0.24976774668024135i
-2.0546475411072262       0.17981749096847885      10.231965725237055-0.19995602678297655i
-1.9805360863324843       0.2783465658757216       10.338858889823175-0.3326411284366854i
-2.0468157155033944       0.2503052459210826       10.322797574449114-0.2785246143402413i
-1.8543666708332327       0.7492157567102231       10.913884866100156-0.8988395065981448i
-1.8270897678796263       0.8134758632618257       10.992730197383631-0.9767108176265284i
-1.8996368285392806       0.8050031579631608       11.044794522660176-0.8976152068075541i
-1.9021122442932346       0.6180364148735531       10.753260509255286-0.7404018105384355i
-1.8793843415870752       0.6840427593340318       10.834031098044177-0.820040338492201i
-1.949017370050316        0.669610080916595        10.86559103891067-0.7478139661090467i
-1.9241114996757156       0.7378868395185133       10.954652935487589-0.824601024072316i
-1.9225226650906264       0.5512772462317256       10.671664784615466-0.660011412994843i
-1.9728151976544908       0.6028384720011086       10.780040890605418-0.6713498229725078i
-1.9696151759501856       0.347298227272644        10.422841086409116-0.4151863590981634i
-2.036628191136948        0.3200218927635492       10.412656758532494-0.3563643566034476i
-1.9562945823640023       0.41582629427833645      10.50636417043164-0.4973194034313111i
-2.0248492232760493       0.39076674395864663      10.504348854467812-0.4349758640949201i
-1.9405906891889022       0.4838468528711764       10.589335887443248-0.5789558825292784i
-2.008618705094171        0.4623649992919381       10.596534133491913-0.5154814865206409i
-1.9922964337224716       0.5336153621383626       10.689741840194458-0.5942276565758076i
-1.1755723723518754       -1.6180326317361413      8.006961577718684+1.9715783300604208i
-1.2392943931405167       -1.6454115608973374      7.830329658837818+1.8610008240195126i
-1.118387843533969        -1.6580737714092937      7.956290657234692+2.0222527302762447i
-1.1825005107947921       -1.6898021206996752      7.763007479629052+1.9063906923169165i
-0.8040551126541726       -1.8950962378554492      7.4856563892222185+2.154761667200954i
-0.7492157567102231       -1.8543666708332327      7.706308935442389+2.272499289373538i
-0.8134758632618257       -1.8270897678796263      7.741212286946841+2.2375402971255816i
-0.8767447256940895       -1.797586906374097       7.7789014568536965+2.199796262306082i
-0.87067326345749         -1.867869268101096       7.518003695115442+2.116991498951467i
-0.9389453881774121       -1.7658939826672406      7.819317690460756+2.159328424165381i
-0.9343610830036986       -1.8367490800563737      7.5619420523193375+2.08100670404623i
-1.0598406742514284       -1.6960948514756706      7.908079322385788+2.0704858565909623i
-1.123231825170988        -1.7304943047362593      7.704877302897356+1.9519388091200331i
-0.9981953314891502       -1.8007868288216229      7.616912779714366+2.0438649955583994i
-1.0000021710325444       -1.732049554120839       7.862398805574494+2.1162019577356297i
-1.0618119145261773       -1.767076680940096       7.657459569118209+1.9980329756479656i
-0.2783465658757216       -1.9805360863324843      7.544104943900252+2.4349954930063498i
-0.2512212145888999       -2.0450561444781608      7.268082472940574+2.3247005218279635i
-0.20905603470402634      -1.989043884471589       7.533120555794299+2.4460001495790973i
-0.6840427593340318       -1.8793843415870752      7.674246605066069+2.304616032916502i
-0.7368560310831845       -1.925095985086776       7.4359980810723885+2.1822965084757815i
-0.6718432756933781       -1.9510350961252636      7.3931662548124395+2.2063229130172544i
-0.6180364148735531       -1.9021122442932346      7.645076589840233+2.3338376724382743i
-0.5512772462317256       -1.9225226650906264      7.618846064712126+2.3601158677920258i
-0.6026064907246679       -1.9714399683660597      7.3697954221268205+2.2357307467746126i
-0.347298227272644        -1.9696151759501856      7.558196049461176+2.4208782678252545i
-0.3234141254208877       -2.0383779442944565      7.267321114522516+2.306518519664357i
-0.41582629427833645      -1.9562945823640023      7.575370008235094+2.40367238557273i
-0.3948469600506446       -2.0285073464898105      7.273492523708314+2.2870145789857417i
-0.4838468528711764       -1.9405906891889022      7.595597896884629+2.3834069273180396i
-0.4651888280440699       -2.0129888871072437      7.29734856795305+2.270666032598674i
-0.5331457300996127       -1.9930188852916153      7.334450399021698+2.2561470920738356i
-1.797586906374097        0.8767447256940895       11.070475724548269-1.0535649246657588i
-1.8716961082319135       0.8704916037210775       11.132080390330374-0.9700364315162596i
-1.7658939826672406       0.9389453881774121       11.147030532995792-1.1293118325654274i
-1.839844047661284        0.9349629579169196       11.216826973967484-1.043072858727702i
-1.732049554120839        1.0000021710325444       11.222303960108867-1.2038607195591617i
-1.8047002643874142       0.9988703532735242       11.30026303940649-1.1165321016178391i
-1.6960948514756706       1.0598406742514284       11.296205571359103-1.2771199554950652i
-1.7685338144276215       1.0622774382078728       11.385003642983504-1.1877429867515978i
-1.6580737714092937       1.118387843533969        11.368645209252678-1.348997212367806i
-1.7308875521456484       1.1240204814739687       11.468495322469783-1.2565019269843107i
-1.6180326317361413       1.1755723723518754       11.439533478546466-1.4194000299503082i
-1.6909708837923496       1.1842979016060762       11.55022500797105-1.3238621680683946i
-1.576020178323563        1.231324651550908        11.50878168797596-1.4882358575749999i
-1.6489256939426988       1.242711145303325        11.629408923200474-1.3896135368723355i
-1.5320875082073617       1.2855768616442023       11.576301979219403-1.5554122976791487i
-1.6044931455605298       1.2988893162079005       11.704689742541161-1.454204384454375i
-1.4862882078875281       1.3382628154045375       11.642007162335434-1.6208370668759446i
-1.5579201163389373       1.3529244665757882       11.776345301238278-1.5175197761588868i
-1.4386781865610048       1.3893182052767965       11.70581106900798-1.6844184803707798i
-1.5099641083895345       1.4043239326002528       11.843895144660477-1.5787423438651385i
-1.3893153786737424       1.4386809161800385       11.767628994966385-1.7460660293363057i
-1.460287775562729        1.4548272827409257       11.911287274838712-1.6381666408037956i
-1.3382598930887217       1.4862908391530114       11.827377534092088-1.805690353768387i
-1.409280503092728        1.5050337212905998       11.980990559185413-1.6947669495497755i
-1.2855738451268326       1.5320900393664239       11.884974886046178-1.8632036774061074i
-1.3581601269940482       1.5544373621998309       12.053661131359078-1.746589292068313i
-1.2313213953763789       1.576022722326162        11.940340887103917-1.9185199645351878i
-1.3038525914123082       1.601347339490853        12.12028323601202-1.798607990595704i
-1.1755692772563593       1.6180348804555982       11.99339668947316-1.971554707885099i
-1.2470965807022718       1.646265404583826        12.183221812224902-1.849602563833874i
-1.1183845735992872       1.6580759770092384       12.044067001600498-2.0222272661547716i
-1.189169715261724        1.6898851959719678       12.246442411231628-1.8972461795121234i
-1.059837212578299        1.6960970145702927       12.09227777176008-2.0704586253789055i
-1.129033582068835        1.731358970745779        12.30592367579652-1.9434533513765715i
-0.9999985355119151       1.7320516530906418       12.137957744409517-2.1161730183549983i
-1.0675830467102165       1.7720374625951496       12.367540248504225-1.9856741330580123i
-0.9389419337642696       1.7658958194126329       12.181038105402957-2.159297607821936i
-1.0037970578770177       1.8092359257066308       12.420772680575539-2.0276764874079642i
-0.8767411072639045       1.7975886712019693       12.2214538826048-2.19976391622069i
-0.9385948784732691       1.8420746403762729       12.463141414311265-2.069622592844748i
-0.13951167151523933      -1.9951281897439634      7.525261475363695+2.4538736625658717i
-0.17903346786486735      -2.0530321023257283      7.255503376326369+2.332811194124705i
-0.10808764528853548      -2.0594009496915087      7.242120410800585+2.335925972899126i
-0.06979829901750112      -1.9987816782866166      7.520540935148193+2.4586028360733807i
-0.03691493594937122      -2.0612444791275633      7.241482895950386+2.340093538082724i
0                         -2                       7.518965461187675+2.4601811314618547i
0.0348493993420934        -2.059078713727917       7.251267340135804+2.344311788830718i
0.06979881898713512       -1.9987816601289903      7.520541522357167+2.4586022536061782i
0.10740480299486739       -2.0591098151695113      7.243526849275348+2.3365835089545146i
0.1395126868041629        -1.9951281187484384      7.525262696105358+2.4538724525784574i
0.27834573686787656       -1.9805362028419167      7.54410706229677+2.43499339111538i
0.2090566021308754        -1.9890438248327997      7.533122327959393+2.44599839231735i
0.25185215750968315       -2.0445141999991776      7.270243850432068+2.325464199588738i
0.1787807471957722        -2.0545056813654146      7.249029902158192+2.330121440788172i
0.34729575105187127       -1.969615612575539       7.5581983353409585+2.4208759979816574i
0.32466587178630263       -2.0362312937820177      7.276125866307736+2.3098034618542265i
0.415822716831225         -1.956295342776008       7.575372447423025+2.4036699590953288i
0.3953844411212363        -2.023827675268507       7.293440197458843+2.294952347098491i
0.48384305487816526       -1.9405916361373317      7.5956006520583905+2.3834041790622i
0.46536619646808663       -2.0098771873228913      7.310535371659383+2.2758722956407023i
0.5512739300701226        -1.922523615986301       7.618849379413987+2.360112547975779i
0.5348024484722363        -1.9931729400962443      7.332566998601634+2.254636637023158i
0.6026403380730897        -1.9716498599342824      7.368902314387035+2.2353640515589306i
0.6180331244361026        -1.9021133134226649      7.6450803132932394+2.3338339254727036i
0.6702237374459277        -1.947139449029051       7.410529153357319+2.2137533781104577i
0.6840392723252542        -1.8793856107560087      7.6742506130445065+2.304611979033002i
0.7492122255824168        -1.854368097503255       7.70631330545701+2.272494844600407i
0.7417652184780168        -1.9232763552225733      7.438406500765482+2.179999349860539i
0.8134722586817302        -1.8270913727439153      7.741216953130819+2.237535520772782i
0.8071532734146785        -1.9004098874802118      7.461633772575559+2.144185014913781i
0.8722863385453167        -1.8713849977898833      7.502805850739911+2.110666424667361i
0.8767411072639045        -1.7975886712019693      7.778906435977571+2.1997911290547574i
0.935215068865772         -1.837794816459582       7.557060079780601+2.078737876081068i
0.9389419337642696        -1.7658958194126329      7.819323085592733+2.159322823496905i
1.059837212578299         -1.6960970145702927      7.9080852825327534+2.0704795698225618i
0.9999985355119151        -1.7320516530906418      7.862404354895035+2.116196146183344i
1.061649356781321         -1.7666686141170518      7.659104649295645+1.9986389541532932i
0.9971869795737468        -1.80153673551037        7.615449566952692+2.044298565694032i
-0.8134722586817302       1.8270913727439153       12.259142542090478-2.237506420944101i
-0.8730606534799807       1.870871451068813        12.496454166551006-2.1104166210769146i
-0.7492122255824168       1.854368097503255        12.294045434389844-2.272463994889212i
-0.807874206658483        1.8969368661012977       12.525927421062397-2.1481104942337113i
-0.6840392723252542       1.8793856107560087       12.326107412130858-2.304579490618831i
-0.7419156813877431       1.9244192292418112       12.566651437724616-2.1781692284001966i
-0.6180331244361026       1.9021133134226649       12.355277071150354-2.3337999486973438i
-0.6732608049958331       1.9487389286057915       12.59912241682819-2.208467447108495i
1.1220939384811102        -1.7308077968116686      7.705298986295232+1.953161252131417i
1.1183845735992872        -1.6580759770092384      7.956297040858517+2.022245949932131i
1.1813532635579773        -1.687773474097653       7.771203540746067+1.9095385462153711i
1.1755692772563593        -1.6180348804555982      8.006968369756205+1.9715710658248697i
1.2313213953763789        -1.576022722326162       8.06002522021993+1.9185339353592064i
1.242743297522241         -1.6482120228172308      7.816820163120183+1.8543100767900358i
1.3002090544066358        -1.6063167829113898      7.869838283205904+1.8008627047520365i
1.2855738451268326        -1.5320900393664239      8.115392281704693+1.8632152256385162i
-0.5512739300701226       1.922523615986301        12.381507413668919-2.3600772103986323i
-0.6041197571180132       1.9715625339239036       12.632317987725779-2.2342216748841115i
-0.48384305487816526      1.9405916361373317       12.404755611931568-2.383367627001834i
-0.5347389625910429       1.9918754593396097       12.66226177299597-2.256800392263173i
-0.415822716831225        1.956295342776008        12.424983362529781-2.4036323549782463i
-0.4651543127263211       2.0089786180743294       12.685827646671243-2.2775189311595643i
-0.34729575105187127      1.969615612575539        12.442157088875755-2.420837499836383i
-0.39556377374369717      2.0249212098926974       12.711739329514925-2.2928846569850365i
1.3542342463115105        -1.5591224506547532      7.9382667386470755+1.7499316843889654i
1.3382598930887217        -1.4862908391530114      8.172990704850301+1.805699452886212i
1.3893153786737424        -1.4386809161800385      8.232740318350203+1.7460726687893733i
1.4059338835722486        -1.507296787982479       8.0175346118693+1.698684833262753i
1.4386781865610048        -1.3893182052767965      8.29455931997244+1.6844226583783193i
1.4594128054331625        -1.4572604464011027      8.083668227684209+1.638780331690459i
1.4862882078875281        -1.3382628154045375      8.358364303440453+1.6208387895310903i
1.509733464658151         -1.4063737871465367      8.151453884662166+1.5787510928661097i
-0.27834573686787656      1.9805362028419167       12.456248044804545-2.434954159132384i
-0.3243506508729814       2.0392517324928856       12.737276008565791-2.304461679460602i
-0.2090566021308754       1.9890438248327997       12.46723254697766-2.445958603704696i
-0.25215473175750297      2.0513349078913383       12.760279346855343-2.3127613550858186i
-0.1395126868041629       1.9951281187484384       12.475092022487507-2.4538322756222284i
-0.17987688225052675      2.059089037168616        12.77192351584916-2.3212457546893135i
-0.06979881898713512      1.9987816601289903       12.479813114962292-2.4585618593658154i
-0.10862910433262918      2.0606695635997476       12.763958369131599-2.3334096884129445i
0                         2                        12.481389179188078-2.46014070198714i
-0.03738217954354078      2.059014316479759        12.748923987055633-2.344258860391672i
1.5320875082073617        -1.2855768616442023      8.424070556285464+1.5554115868877993i
1.5564055975042759        -1.3526299631580054      8.22674267349619+1.5196234666604802i
1.576020178323563         -1.231324651550908       8.49159190165912+1.4882327516321137i
1.6015332044314359        -1.2963682700885981      8.305484576891336+1.4580971408022732i
1.6180326317361413        -1.1755723723518754      8.56084114734253+1.4193945761194353i
1.692379651312142         -1.1858011601563798      8.445181029738576+1.3223984905792696i
1.6580737714092937        -1.118387843533969       8.63173043273443+1.3489894659765362i
1.6477956616231044        -1.241620634964727       8.37486136087901+1.3909497648729043i
1.732049554120839         -1.0000021710325444      8.778073636036414+1.203848597241916i
1.6960948514756706        -1.0598406742514284      8.704171061788912+1.277109983175276i
1.7726841040885548        -1.0636556229077985      8.608053511881073+1.1833462383173468i
1.7342034229704946        -1.1264206925729985      8.523050679042134+1.253156384056366i
0.06979835037280635       1.998781676493267        12.479813766086105-2.4585625269234055i
0.03596091932116905       2.0614953464715353       12.759929399212888-2.3396313112546743i
0.13951170843000513       1.9951281871626547       12.475093361703673-2.453833646554264i
0.10737915714889212       2.0609710837551147       12.765105240308005-2.333041351333099i
0.2090559915083712        1.9890438890116153       12.467234491320562-2.4459605964761715i
0.17906373060183364       2.0559361155212694       12.757735517987845-2.3273387114473016i
0.27834637793517847       1.9805361127458312       12.456250401206546-2.4349565843479772i
0.25042068613342733       2.0475583531712207       12.743006897219969-2.3203460806674516i
1.7658939826672406        -0.9389453881774121      8.853347986965021+1.1292976518765112i
1.8072004894713296        -0.9990447130515938      8.697168536678687+1.1137526660513142i
1.797586906374097         -0.8767447256940895      8.929903672017696+1.0535487898567313i
1.8384784530682003        -0.9341093303511867      8.786470603254273+1.0440486843895356i
1.8270897678796263        -0.8134758632618257      9.007650030824127+0.976692836472481i
1.8688366974920996        -0.8692816715477907      8.873080751373264+0.9721593622138386i
1.8543666708332327        -0.7492157567102231      9.086496146901434+0.8988197928082545i
1.8979873546747188        -0.8044490148866932      8.957951867153042+0.8987789769836102i
0.3472978314677468        1.9696152457416145       12.442159698697589-2.4208402018575286i
0.3200951302448457        2.0361247924477084       12.721621873104091-2.312115074579527i
0.4158256290562705        1.9562947237622343       12.424986253185665-2.4036353656434852i
0.3907409249876821        2.0231825968519117       12.701493331693776-2.298705021286995i
0.48384588019049757       1.9405909317068044       12.404758981802368-2.38337114818932i
0.46137295155493036       2.0074744789089847       12.676903798916664-2.2826218824764766i
0.5512760236420917        1.9225230156638864       12.381511488655157-2.3600814739714577i
0.5323009768625087        1.9897655315421277       12.651539009569264-2.2621522642131136i
0.6180350129143284        1.9021126998188056       12.35528170131898-2.3338048091724635i
0.6034181535121979        1.9729724815998126       12.637585849520379-2.232573394168561i
1.925317200830993         -0.7392830270526347      9.042518290474097+0.8246021060832504i
1.8793843415870752        -0.6840427593340318      9.166350658722463+0.8200190040351999i
1.9489500709520862        -0.6721349578572323      9.130922438895825+0.7499733607226665i
1.9021122442932346        -0.6180364148735531      9.247121939508748+0.740378980443348i
0.68404124634702          1.879384892270877        12.326112480539118-2.304584834850574i
0.6722450128135781        1.9522167138389137       12.612359053015295-2.2041254192251376i
0.7492141990753098        1.8543673001603385       12.294050982410683-2.272469868685554i
0.7382914378570836        1.9260403684375493       12.56954107149793-2.1794652349490353i
0.8134743253572835        1.8270904526006677       12.259148511169997-2.2375127719158914i
0.8041561005072426        1.896598386372231        12.520672769557121-2.1525720659010457i
1.9225226650906264        -0.5512772462317256      9.328718291350329+0.6599872297264705i
1.970464832825626         -0.6021948002197814      9.222862695511397+0.6724865466696444i
1.9405906891889022        -0.4838468528711764      9.411047753435732+0.5789304869993717i
1.9933092832501398        -0.5339480283248943      9.309577176384268+0.5938524619963202i
0.8767432650153197        1.7975876187964461       12.221460236823086-2.199770712525108i
0.8722673295841197        1.8688637773848733       12.4879262526467-2.1138833657989857i
0.938944029504763         1.765894705087865        12.181044923093486-2.159304933126612i
0.9372428774517872        1.8383611004179325       12.447786829988784-2.075629341883072i
2.011498830386522         -0.46549800125169755     9.397967018728421+0.5168823501783892i
1.9562945823640023        -0.41582629427833645     9.494019969101396+0.4972929423174572i
1.0000009167960164        1.7320502782561271       12.137964765492972-2.1161806166885624i
0.9995365318623596        1.8031679268010457       12.393688970275191-2.039571912252988i
2.0248819390479262        -0.396301758181974       9.488401143985067+0.44057657935166966i
1.9696151759501856        -0.347298227272644       9.5775434804448+0.41515898451850636i
2.033473352479235         -0.32171227292174503     9.586579144907803+0.35938920641239536i
1.9805360863324843        -0.2783465658757216      9.661526035002167+0.3326129947325672i
1.989043884471589         -0.20905603470402634     9.745875043175197+0.2497390036865906i
2.046463294343199         -0.248412922733895       9.680199745406568+0.27657322605217466i
1.9951281897439634        -0.13951167151523933     9.830498029846506+0.16662036905467212i
2.0560102677728413        -0.17666080679843787     9.77229089877803+0.1961762386836745i
1.0598395182304123        1.6960955738392598       12.09228524431048-2.0704667511117103i
1.0611675489455321        1.7657696175026605       12.337499923768528-2.000141569198717i
1.9987816782866166        -0.06979829901750112     9.915303134819322+0.08333941536486751i
2.061404346783742         -0.1043615041730438      9.865541917088164+0.11580626328776934i
1.11838677881049          1.6580744895757535       12.04407493656192-2.0222359341280316i
1.124022778490278         1.7288690430609013       12.290992321211066-1.9523144078042183i
2                         0                        10.000201212780281-2.442211750639607E-5i
2.0637769215252866        -0.03229709690062214     9.958537050486589+0.03582128260909689i
1.1755714015236338        1.6180333370854134       11.993405063059447-1.9715638979540626i
1.1853707627343735        1.690999494734197        12.245085330485209-1.9015374701775556i
1.9987816571764048        0.06979890353827216      10.085099981024344-0.08338888906963766i
2.0624486565185163        0.03917212496917342      10.050697557828327-0.04355715050557835i
1.231323776281266         1.576020862160283        11.940349354226589-1.918529333863142i
1.2447794177178055        1.6495108487650816       12.19039887201815-1.8506158283187093i
1.9951281070758407        0.1395128537303027       10.169905650655183-0.16667025203096242i
2.058676389654754         0.11049801133255788      10.142501251324283-0.12299914466902483i
1.2855793710908479        1.532085402523521        11.884980339268145-1.8632101249777033i
1.3009928140992664        1.6044347905863197       12.12584650429377-1.8008507958246562i
1.9890437986178802        0.2090568515494133       10.254527964934557-0.24978798409623285i
2.0549891826616067        0.18128251779405372      10.233967819740519-0.20149756070894184i
1.3382591795353718        1.4862914816378765       11.827390100886639-1.8057039951068743i
1.353251684220494         1.556300663338534        12.052473948017273-1.7526449058468534i
1.9805361563521657        0.2783460676600089       10.3388750568315-0.3326597543415626i
2.050404646572482         0.2518662573695985       10.325876223472612-0.2790886609189816i
1.4041516713286202        1.5058012026206486       11.976191530842899-1.701757329435219i
1.3893186284307706        1.4386777779250093       11.767637274983377-1.7460754853411746i
2.0419915601856466        0.32311455848467296      10.418741697287771-0.3574716833886709i
1.9696155403119548        0.34729616087951104      10.422855301663153-0.415203040350203i
1.4386851268717848        1.3893110183533122       11.705814728940089-1.6844234258075195i
1.4580188264523182        1.4577646597285365       11.916204419011862-1.6406196421440937i
1.9562952390095711        0.4158232050144448       10.506377069194908-0.49733475661600024i
2.0288361528628203        0.3947276846986178       10.51154738724408-0.4370792283368267i