% Model:              VLR_3_01V03.mph
% Version:            COMSOL 5.5.0.292
% Date:               Jun 7 2020, 21:16
% Dimension:          2
% Nodes:              3381
% Expressions:        1
% Description:        Electric potential
% Length unit:        cm
% x                       y                        V2 (V)
-0.043610259754689656     -0.08998969521077675     10.000002621713506+0.0028872864519750067i
-0.04130391348466197      -0.1106433913365255      9.508611611128261+0.0026565652085175032i
-0.02265369791667273      -0.0974002565227635      10.000002621713488+0.0028872868395565256i
-0.016979805975223427     -0.11682016650520503     9.482349199777182+0.00265627636837738i
0                         -0.1                     10.00000262171347+0.002887286975826535i
-0.06263383237945895      -0.09806864611575233     9.597678718122916+0.002678507078463272i
-0.06241300531509565      -0.07813204699441734     10.000002621713515+0.0028872858318036137i
0.011495363471991269      -0.12252872915351799     9.346744289885228+0.0025980848811227495i
0.022653716388030657      -0.09740025222662757     10.000002621713481+0.002887286839881785i
0.043611234888071976      -0.08998922264103305     10.000002621713497+0.0028872864518570333i
0.041624055473139986      -0.11351108212765353     9.43733260829386+0.002623993784376846i
-0.08206701739128376      -0.08302444820263494     9.653277897175295+0.0026757856242140957i
-0.07813136861957454      -0.06241385453272508     10.00000262171351+0.002887285009739653i
0.06363591945430257       -0.09952344505063786     9.55749138922466+0.0026577667759922277i
0.06241385453272508       -0.07813136861957454     10.000002621713513+0.002887285831743887i
-0.08998922264103305      -0.043611234888071976    10.000002621713527+0.002887284026496368i
-0.09835937325025161      -0.06476636100485067     9.71659874282017+0.002665588928926871i
0.08301712296082947       -0.08301622064827016     9.642566726380624+0.0026681058550630204i
0.07813204699441734       -0.06241300531509565     10.000002621713522+0.0028872850097284124i
-0.09740025222662757      -0.022653716388030657    10.000002621713547+0.0028872829308071134i
-0.1110143673619004       -0.04395316791889864     9.79416304331136+0.002648504857598218i
0.09866999824396167       -0.06315683978730592     9.73119875741328+0.0026728146917903667i
0.08998969521077675       -0.043610259754689656    10.000002621713527+0.0028872840265184788i
0.11035856678296607       -0.040654589859128884    9.82335978889999+0.00266902379389799i
0.0974002565227635        -0.02265369791667273     10.000002621713541+0.002887282930742932i
-0.1                      0                        10.000002621713564+0.002887281746024362i
-0.11898953043544787      -0.006387658192004718    9.970293418641317+0.002652470518600025i
0.1                       0                        10.000002621713545+0.002887281745649306i
0.1185716179807322        0.007133330205912041     10.032657809758184+0.002656686745046615i
0.09740027152773081       0.022653633402266993     10.000002621713554+0.002887280560877117i
0.11681793996182507       -0.017290094830905198    9.923179159269152+0.00266441026602918i
-0.09740027579126098      0.02265361507102783      10.000002621713584+0.002887280560890953i
-0.11711570077368715      0.01808194145623844      10.081757200185814+0.0026597223871324053i
-0.08998976940816245      0.04361010664818135      10.000002621713595+0.0028872794651563735i
-0.11053232109098145      0.04180510752452123      10.186148705318976+0.0026625349757778377i
0.08998929695878763       0.043611081537415886     10.000002621713561+0.002887279465160443i
0.11044497070349987       0.044060754330434104     10.202333122294023+0.0026540207770381027i
-0.09868971236865892      0.06363107313992156      10.274191093860509+0.0026696392787899036i
-0.07813220659018694      0.062412805523773304     10.000002621713616+0.0028872784819057294i
-0.08278694786449456      0.08278566288219573      10.351208143350682+0.0026718832369052414i
-0.062414122765496065     0.07813115434584073      10.000002621713612+0.0028872776598410552i
-0.06358737277436428      0.09872391796917646      10.425692905588582+0.0026659561721925668i
-0.04361161765327609      0.08998903714155662      10.000002621713605+0.002887277039796731i
-0.02265421350800062      0.09740013660326112      10.000002621713593+0.002887276652240489i
-0.04313916189860723      0.1108090634676282       10.509134295145143+0.002647132232065083i
0.0781315280452624        0.06241365495876985      10.000002621713579+0.0028872784819296807i
0.09804164722611296       0.0643609116488913       10.27554111034546+0.0026712351839300544i
0.08234733999736495       0.0829807050607362       10.349222792741271+0.002673868871465517i
0.06241327189725422       0.0781318340440017       10.000002621713572+0.0028872776598692132i
0.06347653394415484       0.09861593372964138      10.422289940515995+0.0026677462353665213i
0.04361064313298144       0.08998950941930808      10.000002621713577+0.0028872770396653103i
0.0420714769307773        0.1101188139919511       10.484434729190339+0.0026591865316499086i
0.02265419578313888       0.09740014072586965      10.000002621713579+0.002887276651975334i
0                         0.1                      10.000002621713591+0.0028872765160141323i
-0.006469235516029825     0.11885125132798172      10.548725676069038+0.002644542719233792i
0.018037174033611         0.11777724363320316      10.546326156086137+0.0026433306827849993i
-0.00509587741559925      -0.0410670399964869      10.000002621714165+0.002887285182314547i
-0.011511264375802868     -0.04865686788594568     10.00000262171398+0.002887285817975127i
0                         -0.05                    10.00000262171398+0.0028872859301087555i
-0.021907439957443337     -0.044945122922415245    10.000002621713973+0.0028872855072599943i
-0.013580156694836969     -0.03727148349138352     10.000002621714188+0.0028872848647126955i
0.004428180733670958      -0.03972992267247989     10.00000262171419+0.002887285070424937i
0.011510879652121941      -0.04865695890244647     10.000002621713977+0.002887285817992352i
-0.022929265813663627     -0.03549534736926449     10.000002621714144+0.0028872847160673364i
-0.03123622795269456      -0.03904225996644282     10.000002621713987+0.002887285013174939i
0.013350891724150916      -0.03953296223484311     10.00000262171417+0.0028872850539602172i
0.02190754725884285       -0.04494507062072065     10.000002621713989+0.002887285507265549i
0.031236323268193672      -0.0390421837079447      10.000002621714009+0.0028872850131684874i
0.020625534682305328      -0.034741747210421434    10.000002621714211+0.0028872846530135186i
-0.0390421837079447       -0.031236323268193672    10.000002621713996+0.002887284359814424i
-0.028902516036850862     -0.02799454476993259     10.0000026217142+0.00288728408838531i
0.03904225996644282       -0.03123622795269456     10.000002621714025+0.0028872843597704933i
0.028239167673035487      -0.02852193240538412     10.000002621714223+0.002887284132516521i
0.03426123160606659       -0.02131974764629513     10.000002621714238+0.0028872835298319865i
0.044945122922415245      -0.021907439957443337    10.000002621714042+0.0028872835789144004i
-0.03629921311157199      -0.022316607631850047    10.000002621714174+0.0028872836132465074i
-0.04494507062072065      -0.02190754725884285     10.000002621714017+0.002887283579032425i
-0.038365431060655174     -0.013213778691250653    10.000002621714243+0.0028872828515517975i
-0.04865695890244647      -0.011510879652121941    10.000002621714065+0.0028872827090343383i
0.03973752794590771       -0.014605324412211618    10.000002621714216+0.0028872829679905117i
0.04865686788594568       -0.011511264375802868    10.000002621714058+0.0028872827087975325i
0.04050245573207107       -0.006124547014408487    10.000002621714243+0.0028872822583702064i
0.05                      0                        10.00000262171408+0.0028872817459751686i
-0.0418406543304712       -0.004639395717597255    10.000002621714247+0.0028872821340870693i
-0.05                     0                        10.0000026217141+0.002887281745668257i
-0.04008614961270931      0.0042958887487078955    10.000002621714309+0.0028872813862836407i
-0.04865686788594568      0.011511264375802868     10.000002621714103+0.002887280782824238i
-0.0394335574195311       0.013464316254026576     10.000002621714277+0.0028872806191068646i
-0.044945122922415245     0.021907439957443337     10.000002621714094+0.002887279912737213i
-0.03391175625955506      0.020395039322016        10.000002621714314+0.002887280039171273i
-0.03904225996644282      0.03123622795269456      10.0000026217141+0.002887279131881653i
0.04144622117221289       0.0030456789628740205    10.000002621714248+0.0028872814909285953i
0.04865695890244647       0.011510879652121941     10.00000262171409+0.0028872807826282863i
0.04494507062072065       0.02190754725884285      10.000002621714069+0.002887279912623221i
0.037683889306442536      0.013172049117694321     10.000002621714273+0.0028872806435630456i
0.03566386183408023       0.021394117786090155     10.000002621714243+0.002887279955569475i
0.0390421837079447        0.031236323268193672     10.000002621714055+0.0028872791318414284i
-0.029069098265885444     0.028827243897026348     10.000002621714271+0.002887279333563187i
-0.031236323268193672     0.0390421837079447       10.000002621714113+0.002887278478450933i
-0.02190754725884285      0.04494507062072065      10.000002621714124+0.0028872779843940447i
-0.02077667870346191      0.03319112914976847      10.000002621714293+0.002887278968365114i
-0.013310283199382376     0.039220003860721386     10.000002621714263+0.0028872784638446338i
-0.011510879652121941     0.04865695890244647      10.000002621714136+0.002887277673468919i
0.03123622795269456       0.03904225996644282      10.00000262171406+0.00288727847847583i
0.02879225497302286       0.027235305035840176     10.000002621714268+0.0028872794667774535i
0                         0.05                     10.000002621714115+0.0028872775612416167i
-0.0039188096053217785    0.03910340284951266      10.0000026217143+0.0028872784735740984i
0.005505293154523942      0.041333985821389925     10.000002621714254+0.002887278286953962i
0.011511264375802868      0.04865686788594568      10.000002621714076+0.0028872776738021414i
0.023068305249670143      0.03578802606938222      10.000002621714211+0.0028872787510799587i
0.021907439957443337      0.044945122922415245     10.000002621714067+0.0028872779844361894i
0.014015779799636105      0.03715159899156458      10.000002621714273+0.0028872786369588278i
-7.619169492410579        -4.598637900502739       0.22128932022332987
-8                        -4.418327574112066       0.22615135334880784
-8                        -5                       0.22113260739909282
-7.407407407407416        -5                       0.21611469346142112
-7.58462937173334         -4.108890839356425       0.23001614655671096
-8                        -3.836655148224132       0.2424427353781058
-7.103810682912137        -4.465971089045207       0.21312293583373937
-6.814814814814824        -5                       0.20218956072637054
-7.55398508220846         -3.5784420453230776      0.24888085089058123
-8                        -3.254982722336198       0.27448823873945527
-7.119961607939943        -3.861243164402359       0.22542852983189987
-7.1326911462301235       -3.337181779564581       0.2448506964230304
-6.712034337837762        -4.074802454194591       0.20592323491646392
-6.499116794993899        -4.499940300555014       0.19359285940198181
-6.22222222222223         -5                       0.18211609009115093
-7.554552138890311        -3.03129023824512        0.2836522940176245
-7.139900239860307        -2.839490351685323       0.27279468769855647
-8                        -2.681285058837913       0.33231804037202617
-6.786517225941144        -2.3411107568579745      0.2596830343574911
-7.058608129764823        -2.492783164514292       0.2885251287435428
-6.718629947407376        -2.6730236121472464      0.24135289851379782
-6.8107112901731774       -2.042996776591234       0.2702810199823075
-6.460876007661806        -2.152548777922976       0.21370322157737812
-6.615715792305118        -1.8030508397595524      0.22675272142485328
-6.238450944693447        -1.937208660993829       0.17495205699845626
-6.621736023062674        -3.5482064685258843      0.21124514847708029
-6.695708295517437        -3.062308361954451       0.22778128956886232
-6.250546390193092        -3.975244384705106       0.18734558094970447
-6.223943044372067        -3.5809444755106363      0.18919188041540924
-5.951266012666158        -4.514016197386705       0.17225672875507558
-5.629629629629637        -5                       0.15919439873983765
-7.500736365042966        -2.4963594717236246      0.33664854172449843
-7.161724728640445        -2.1576686311628097      0.33172649174630736
-7.005048122117275        -1.797330417913156       0.31943348928270326
-8                        -2.1739568666708937      0.42761918323641596
-6.878494520148092        -1.53094642171426        0.27160321479059185
-6.565449262993921        -1.5203684061813632      0.19061923914096024
-6.351157489510836        -1.6370837221043286      0.16695026602538746
-6.082821145143187        -1.6925359210056796      0.13787027716314312
-6.367188885042041        -2.45176279387215        0.20598789932637196
-6.289274031891437        -2.797584308071456       0.1989121097114486
-5.856164405528168        -1.8918792867397651      0.13113550374232516
-6.055839081128238        -2.204389142643474       0.16701684515101742
-6.19250103809643         -3.22093265794509        0.1898267852933573
-5.860751688788386        -3.6076576590938685      0.1696094042548041
-5.666873014752772        -4.071142866825899       0.16054865438355614
-5.358310518967524        -4.540610953688661       0.14822879724417434
-5.037037037037043        -5                       0.13620977223348069
-7.617585022726131        -1.9862210315806261      0.4473475004563086
-7.188432208101636        -1.4923132631253537      0.39323048063004656
-7.038775225866327        -1.339521368593309       0.3071811335452863
-7.174927954173461        -1.2839674758543884      0.3706775893539407
-7.367966895390936        -1.7375735921710402      0.44216710998638425
-8                        -1.7770508616229572      0.5659979239171584
-7.050888528737978        -1.1656625290832143      0.2665738448969361
-7.239033618792962        -1.1405764578272648      0.3795606902953837
-6.880640016691944        -1.2757110528206912      0.22932225342203164
-6.69587018169165         -1.3282688332047432      0.18790531987355477
-6.901304344173652        -1.1088577968623525      0.18378116159091454
-6.364494965297631        -1.444956354861973       0.14542354770909968
-6.486859291613664        -1.2811186068199283      0.13678763132714836
-6.186125425356664        -1.4844180742533606      0.1273764389752001
-5.875175995742134        -1.6403969930407585      0.11298853197819456
-5.9884613221411325       -1.4871605319419794      0.10747675637515798
-5.679914358702026        -1.6724464487153563      0.1006686620735225
-5.528729814387777        -1.8545875246110313      0.10375052045783693
-5.492157897155563        -1.6493940937323788      0.0869688101645615
-5.893744902022436        -2.5399188458288355      0.16257419239624937
-5.883846823696433        -2.883943354474815       0.16770635031214307
-5.539619679872459        -2.229911128250037       0.1250239943850144
-5.6302329394175015       -3.1923084166913926      0.15484974967488904
-5.3376378845891805       -3.6109021795133303      0.1434858399697284
-5.055562384369953        -4.0708088953683665      0.13443019944894305
-4.758315000145677        -4.530940945448407       0.1251749387447431
-4.44444444444445         -5                       0.11501570829713666
-7.358414885959692        -1.2929916387047011      0.5068955408637593
-7.406675511023521        -0.9721430839231832      0.48598484699634387
-7.3934380382579326       -1.1089835354487674      0.5325689595867976
-7.2802806031197225       -1.0005209721616395      0.33953072180470706
-7.7075460880010995       -1.6263408428959296      0.5990881538309049
-7.493474367845286        -1.4612900701994704      0.5716463544190981
-8                        -1.4658299786020534      0.7663635149765146
-7.134456017580512        -1.0107914737246595      0.23476641830211056
-6.987082523886988        -1.0002120778998362      0.16249004164261394
-6.770387516401133        -1.1422414444044124      0.1585640307366628
-6.61586954294077         -1.1409159156918713      0.12623772520825816
-6.831996900026685        -0.9945723250060172      0.11810040716155841
-6.4848736778835585       -1.0948854649589         0.09522698200371697
-6.278530832664324        -1.2970518072306934      0.11126449922743871
-6.352772018823026        -1.1448087640686533      0.0914913753856789
-6.076357425353197        -1.2828358577005636      0.08919557071667493
-5.773463864785286        -1.4810189677089998      0.08990112065716994
-5.869719569183269        -1.3106870010110034      0.07762272334643942
-5.571587092294165        -1.483423100620896       0.07770692641181177
-5.292916779312078        -1.9520228147509477      0.09571685211425816
-5.311605765756363        -1.7318713754777022      0.08317396978219417
-5.3689598505334475       -1.5046284141618176      0.06938862205792297
-5.41348120705436         -2.6689725438373024      0.1324018297753906
-5.050238940813328        -2.190723733332455       0.0952504843547314
-5.062633575782919        -3.146168646074866       0.12442955960257275
-4.756086392310923        -3.6057487412940605      0.1181804579414902
-4.456555105305502        -4.066822556171225       0.11179888884468299
-4.154717720143363        -4.533734918653978       0.10468192816800202
-3.8518518518518565       -5                       0.09657414895267806
-7.49175330358929         -0.9299197443437588      0.640138106697098
-7.430243121922393        -0.8586324990489296      0.3746367413411837
-7.324260595197066        -0.8677398716618987      0.23061342803432303
-7.194714219646424        -0.8793467033449939      0.1553611495999385
-7.524975177533437        -1.0283616350098765      0.7454174525254543
-7.562511680008647        -0.9342987169759901      0.8588725286297597
-7.596234215818841        -1.1775664488216955      0.7988433761826663
-7.768322209378627        -1.336675054523116       0.8248684076613179
-7.534361016820844        -0.8561627837013678      0.7342564553387899
-7.605833315281793        -0.8820403317263615      1.0467183613554987
-7.5                      -0.75                    0
-8                        -1.203555544390462       1.081572363711066
-7.054736613755288        -0.8784301075638464      0.10425192575990953
-6.907217171273972        -0.8729363395011878      0.07168808076052822
-6.6957425427034645       -1.0042575379122902      0.09743529856020393
-6.5604531710701          -0.9937822803747078      0.07671240428086785
-6.763781784682397        -0.8744593411963928      0.055358173582225605
-6.410598421063159        -0.9962728421763776      0.06353311776906652
-6.204612976820752        -1.1440383363766065      0.07763602821367961
-6.277923920827636        -1.0048649258613158      0.05604418914269527
-6.070701539458059        -1.1007666769884517      0.06089401227679701
-5.936350311848178        -1.1557285761018496      0.061453530617210574
-5.7858508094047725       -1.1445265192883172      0.052535716588181534
-5.660584892079312        -1.2830825109371078      0.06274028864561476
-5.45448606588517         -1.309886538019171       0.05639495170584652
-5.65239866793539         -1.0989467933350565      0.041941501324428955
-5.0793249800135225       -1.8060975639775612      0.07701148606559456
-5.166047920341836        -1.5358656260900643      0.06326906494169547
-4.776895513872216        -1.843239126560387       0.06742987820037472
-5.23979510486358         -1.2888742136161304      0.04710140353922704
-4.582863880657401        -1.674630151035349       0.053004144974891754
-4.488440281253783        -1.8359679444667236      0.05818531242599485
-4.423819180900164        -1.6645117913693548      0.04856088145373288
-4.77448518725655         -2.6620316214909407      0.09992048356389517
-4.47591720125644         -2.170628923942824       0.07187391270147638
-4.463877844069006        -3.1370483736221635      0.09937884244360508
-4.16078760351852         -3.607692337101958       0.09689666631212879
-3.8612313745192797       -4.0761405886656314      0.09297346087035552
-3.5605070247350747       -4.539767534040872       0.08768953607433076
-3.259259259259263        -5                       0.08121787266120437
-7.386851504217098        -0.75                    0
-7.253745713548048        -0.75                    0
-7.11430348904341         -0.75                    0
-7.655635586817882        -0.9750090900985864      1.1010960083739325
-7.808385376386516        -1.087342407661191       1.1917899678609587
-7.603356950471252        -0.7953253174665701      1.1433468093550843
-7.675575671257759        -0.8514528281583071      1.3986983427219892
-7.5970156348363655       -0.6987349090965711      1.4223177739407564
-7.5                      -0.6499999999999999      0
-8                        -0.963976389492665       1.6386833093470419
-6.974807342199423        -0.75                    0
-6.835311195355436        -0.75                    0
-6.626610698783615        -0.8743794093183077      0.04423359191706219
-6.486239586124515        -0.8731536579277049      0.03579415250485257
-6.695815048511449        -0.75                    0
-6.34626277725089         -0.8748472109992904      0.030308868432657603
-6.144632346827047        -0.9944297679364491      0.04655408067481221
-6.208664984180937        -0.8747926336105185      0.02581963284908764
-5.991060466646627        -1.0020967166343475      0.04114195018071976
-5.860508464278634        -1.011787277684042       0.037842274516343116
-5.726297365562652        -0.9963810343457679      0.031786746278261335
-5.516745729532657        -1.1527975408763216      0.04336288242980879
-5.3696387322621915       -1.145793302569603       0.03837465959334476
-5.573849696749143        -0.9978179824422286      0.028294085726056167
-5.232018741782919        -1.1008750787438244      0.031116919598033654
-4.9542029513260815       -1.5640114521051744      0.0576662705032708
-5.042398869558023        -1.3197107372019996      0.04386140292193442
-4.729852859210238        -1.5321602036459514      0.04922380658998226
-5.096623205104409        -1.1525230651320204      0.03257649577751743
-4.9500695911152075       -1.1507722147546244      0.029664989593228563
-4.18349579953374         -1.8207486665142318      0.04996873738793011
-4.5044824257226335       -1.5005468822309809      0.0422112716460902
-4.287478658729972        -1.5282833128465454      0.03928954793808769
-3.947752731476205        -1.6777725922245572      0.039656314664918
-3.8678743483092464       -1.8520340655575902      0.044777146716333566
-4.1669322349314335       -2.6592861987777043      0.07806464332452843
-3.8909324511340193       -2.1824051764573245      0.05651182823865892
-3.566144143590391        -1.8948421654342993      0.04106169349188383
-3.8626757761715242       -3.1477734423708768      0.08039347268462915
-3.5661611155997983       -3.623192371413457       0.08007654916339206
-3.2686596778134227       -4.0856338146123035      0.07774676334436505
-2.9678307747373616       -4.543999476003862       0.07391386737334253
-2.6666666666666696       -5                       0.0689166393799016
-7.3885350493463235       -0.6499999999999999      0
-7.43123759546378         -0.536808116225601       2.1473388333020433
-7.8077949900311445       -0.8666164560433622      1.777774826225963
-7.698521949627558        -0.7485550919148457      1.8803350256497058
-7.6825727594141275       -0.6387615772298914      2.487222541407558
-7.596536726832885        -0.6068235884438156      2.1672100477048497
-7.545623858458531        -0.5260465116194988      2.8403020928227654
-8                        -0.7414110796047844      2.6289484305853295
-6.556318901667462        -0.75                    0
-6.416822754823475        -0.75                    0
-6.277326607979488        -0.75                    0
-6.0680125245745105       -0.874616302092772       0.022212695885689884
-6.137830461135501        -0.75                    0
-5.927882973802286        -0.8775133606687543      0.019829722343620373
-5.790543905574904        -0.8765798676013637      0.017396475694904903
-5.650288401923554        -0.8739096536727472      0.015144278280250735
-5.441127810905219        -1.0071912666047946      0.02656491396055689
-5.307648296348648        -0.9946254320596886      0.023008484173827195
-5.507452577191575        -0.8767879815813168      0.013857968562575788
-5.152581129887841        -0.9988747935863931      0.02110078768530174
-4.820134083246798        -1.2978329211305932      0.037149346330621245
-4.606234813651641        -1.315661416485725       0.034101022130326335
-4.812894566267522        -1.103195850729085       0.02421548814394765
-5.021812681318819        -1.0083315758278373      0.020155626584366242
-4.88847387674132         -0.9959458335682337      0.017718443768574576
-4.079538779318305        -1.5308123416337835      0.03581952400435864
-4.396645161186386        -1.2880344180029595      0.029208002912329004
-4.182520989440761        -1.3184344897569087      0.02777804590597374
-3.747958223158491        -1.6772261035953324      0.036457644243897726
-3.8598765819473475       -1.507995489476287       0.03165174071445304
-3.557971751318799        -1.630014532343738       0.03218270847362782
-3.3735788453192397       -1.6949802276171162      0.03203718716087072
-3.1330606342276504       -1.7201229817506885      0.030069605527943803
-3.248335130523907        -1.910194967209179       0.03691889079146006
-3.573289785378603        -2.6955213048964985      0.06345650296169841
-3.2632636542956983       -2.251878772216859       0.04646478853722159
-3.2742157765901045       -3.1805672268078595      0.06660053055228266
-2.9767056586963307       -3.6368943053583282      0.06700699774046372
-2.6777307420636105       -4.091963154674266       0.06574745402496335
-2.3761383271653207       -4.546502406944331       0.06314236445228838
-2.074074074074076        -5                       0.05947380083443526
-7.481629508603542        -0.434106192958283       3.926929863994428
-7.257558114957555        -0.6499999999999999      0
-7.305675227709593        -0.5347719400582357      1.9427893817239585
-7.365347776379499        -0.42353934159148277     3.8173113533800573
-7.118101309697774        -0.6499999999999999      0
-7.183900705254924        -0.5278830235035114      1.9659014329198345
-6.978530695782135        -0.6499999999999999      0
-7.050407038366544        -0.5259690493830417      1.9514163723476938
-6.838960081866496        -0.65                    0
-6.910208126014328        -0.5283134984047426      1.8929694934909131
-7.824815691754707        -0.6404394634943723      3.067745397835189
-7.690178675038722        -0.5007209321438969      3.8644879081236843
-7.574160644812252        -0.42782023994539603     4.317143768316153
-8                        -0.5203362555764333      4.27996296031013
-6.699389467950858        -0.6499999999999999      0
-6.770249283135719        -0.5261540910610338      1.9159394236678062
-6.5598188540352185       -0.6499999999999999      0
-6.633100442266632        -0.5246475847377184      1.9339979949661992
-6.420248240119579        -0.6499999999999999      0
-6.49466337614851         -0.5242780475913035      1.937009607280025
-5.9983343142915135       -0.75                    0
-5.8588381674475265       -0.75                    0
-5.7193420206035395       -0.75                    0
-5.579845873759552        -0.75                    0
-5.371431833347109        -0.8753253600996113      0.012397798155242659
-5.231159008433779        -0.8733474810929277      0.011074235659153385
-5.440349726915565        -0.75                    0
-5.090271439023444        -0.8760608485090057      0.010321186252179286
-4.677968336884676        -1.1535154105844476      0.02558222019658493
-4.534288743869314        -1.1515904631977076      0.023587994655654445
-4.735494031335967        -1.0008511883687974      0.016549553237919762
-4.952856846040687        -0.8758126994167466      0.009458893155786586
-4.812355840297049        -0.8745424151958715      0.008617850077605195
-3.962650306011951        -1.2901035915659516      0.023921803520013194
-4.392971396732756        -1.1074924283796208      0.019579395127914078
-4.258902298487494        -1.153824540158684       0.02065895932453223
-4.114904117070421        -1.1549612583216264      0.019352200433212324
-3.972265678631644        -1.1137955644676505      0.016318382937268915
-3.7613453281465823       -1.3021658743510842      0.02240427854065061
-3.657644992483676        -1.4804773400574718      0.028094955340998623
-3.4561147685522715       -1.4846540363468252      0.02607445504087096
-3.248254368177765        -1.500649880190018       0.024602624040682457
-3.0392960860681364       -1.4989455885614023      0.02276904693871079
-2.9367558662252025       -1.671930712430362       0.026779124264266773
-2.8799463945738153       -1.927002634535472       0.03293876430184411
-2.7782194596568255       -1.6783944800740536      0.02557143235483155