% Model:              VLR_3_01V03.mph
% Version:            COMSOL 5.5.0.292
% Date:               Jun 7 2020, 21:17
% Dimension:          2
% Nodes:              1789
% Expressions:        1
% Description:        Electric potential
% Length unit:        cm
% x                       y                        V2 (V)
-0.08199822461358115      -0.08390968988337733     9.966272246103484+0.006633534362835061i
-0.06241300531509565      -0.07813204699441734     10.000487327609736+0.006854461148704818i
-0.07813136861957454      -0.06241385453272508     10.000487327609738+0.006854461070513591i
-0.08998922264103305      -0.043611234888071976    10.000487327609743+0.006854460977013585i
-0.09855014771866395      -0.06564932539168358     9.972425465363985+0.006620866170367857i
-0.061898464789454266     -0.09925373886095169     9.96063926342466+0.006637518106846207i
-0.043610259754689656     -0.08998969521077675     10.000487327609738+0.0068544612077117316i
-0.09740025222662757      -0.022653716388030657    10.000487327609747+0.006854460872844283i
-0.11084518655060688      -0.04499268241815598     9.98029296344611+0.0066068368853882285i
-0.0391403380257305       -0.11068620576289362     9.955149642984473+0.006632332088015125i
-0.02265369791667273      -0.0974002565227635      10.000487327609717+0.006854461244609107i
-0.01331633138003748      -0.11647488696855035     9.953131979219231+0.006634263811332094i
0                         -0.1                     10.000487327609699+0.006854461257570536i
-0.1                      0                        10.00048732760974+0.006854460760201099i
-0.12017974117265519      -0.006952392494385852    9.997275943515673+0.006598310908534821i
0.013439236166640906      -0.11710699311261008     9.951495195839394+0.006626709845111714i
0.022653716388030657      -0.09740025222662757     10.000487327609711+0.00685446124461913i
0.03894236059355642       -0.11051378405490728     9.955684156462679+0.006635021380410745i
0.043611234888071976      -0.08998922264103305     10.00048732760974+0.006854461207738261i
0.061997741650123464      -0.09914976006658942     9.960744843866193+0.006637941604368731i
0.06241385453272508       -0.07813136861957454     10.000487327609756+0.006854461148740505i
0.08202319232786502       -0.08336918167454906     9.967060831915155+0.006637893035593313i
0.07813204699441734       -0.06241300531509565     10.000487327609758+0.006854461070559537i
-0.09740027579126098      0.02265361507102783      10.000487327609738+0.0068544606475358155i
-0.11770218477042282      0.0176967802900531       10.008248600784936+0.0066139742746805655i
0.0984535935368357        -0.06388142749282229     9.974401791807425+0.006633219455853593i
0.08998969521077675       -0.043610259754689656    10.00048732760977+0.006854460977065369i
-0.08998976940816245      0.04361010664818135      10.000487327609736+0.006854460543360102i
-0.1104315016097454       0.041781585383011306     10.018085527594268+0.006625019699046194i
-0.0987541246994406       0.06371748721027315      10.026696830879727+0.006631301752400335i
-0.07813220659018694      0.062412805523773304     10.000487327609745+0.006854460449866634i
-0.08324066344482998      0.08259111068972892      10.034073117107498+0.006634263304206556i
-0.062414122765496065     0.07813115434584073      10.000487327609736+0.00685446037169365i
-0.04361161765327609      0.08998903714155662      10.00048732760974+0.006854460312713309i
-0.0652781507385115       0.09865884696609295      10.04249620211708+0.006621930366504471i
-0.02265421350800062      0.09740013660326112      10.000487327609743+0.006854460275851823i
-0.044179573319091246     0.11116039376175113      10.05044728461405+0.00660642129730159i
0.11040386177580243       -0.041528044519538315    9.983082959499896+0.006626368746975448i
0.0974002565227635        -0.02265369791667273     10.00048732760979+0.006854460872884077i
0.11734408355700476       -0.01734647613415439     9.993005524521957+0.006618690375303543i
0.1                       0                        10.00048732760981+0.006854460760223928i
0.11925844013909861       0.006775392338752018     10.00350678351703+0.006609025293719523i
0.09740027152773081       0.022653633402266993     10.000487327609806+0.006854460647584627i
0.08998929695878763       0.043611081537415886     10.000487327609795+0.006854460543407836i
0.1108257300821652        0.04426982298889782      10.020135585672852+0.006610186734673778i
0.04361064313298144       0.08998950941930808      10.000487327609761+0.0068544603127209105i
0.04206847577696436       0.11047041906308609      10.047360138980727+0.006622872101166614i
0.02265419578313888       0.09740014072586965      10.000487327609767+0.006854460275839799i
0.0781315280452624        0.06241365495876985      10.000487327609788+0.00685446044990944i
0.09876956408260817       0.06464458281049228      10.027687823877896+0.006625208035759626i
0.0829106265248447        0.08325842480910316      10.034706695447099+0.006631463539987105i
0.06241327189725422       0.0781318340440017       10.000487327609767+0.0068544603717222196i
0.06375002243067655       0.09876625446052761      10.041197365645353+0.006630688770919516i
0                         0.1                      10.000487327609754+0.006854460262896984i
-0.006280040743469355     0.11994620671643337      10.05544181615542+0.006600615300945112i
0.01836068789230439       0.11748726819842975      10.051831983160797+0.0066145778073265415i
-0.0390421837079447       -0.031236323268193672    10.000487327610228+0.006854461008747062i
-0.03123622795269456      -0.03904225996644282     10.000487327610236+0.00685446107088112i
-0.028902516036850862     -0.02799454476993259     10.000487327610417+0.006854460982946419i
-0.022929265813663627     -0.03549534736926449     10.000487327610378+0.006854461042636331i
-0.021907439957443337     -0.044945122922415245    10.000487327610218+0.006854461117872066i
-0.011511264375802868     -0.04865686788594568     10.000487327610209+0.0068544611474259725i
-0.013580156694836969     -0.03727148349138352     10.000487327610417+0.00685446105677738i
-0.00509587741559925      -0.0410670399964869      10.000487327610381+0.006854461086983019i
0                         -0.05                    10.000487327610204+0.006854461158094487i
0.004428180733670958      -0.03972992267247989     10.000487327610406+0.006854461076347095i
0.011510879652121941      -0.04865695890244647     10.0004873276102+0.0068544611474361085i
-0.03629921311157199      -0.022316607631850047    10.00048732761039+0.006854460937761345i
-0.04494507062072065      -0.02190754725884285     10.000487327610244+0.006854460934500942i
0.013350891724150916      -0.03953296223484311     10.000487327610387+0.006854461074783833i
0.02190754725884285       -0.04494507062072065     10.000487327610212+0.0068544611178899375i
-0.038365431060655174     -0.013213778691250653    10.000487327610449+0.006854460865334176i
-0.04865695890244647      -0.011510879652121941    10.000487327610267+0.0068544608517761224i
-0.0418406543304712       -0.004639395717597255    10.000487327610436+0.006854460797112863i
-0.05                     0                        10.000487327610287+0.00685446076017699i
-0.04008614961270931      0.0042958887487078955    10.000487327610474+0.006854460726010058i
-0.04865686788594568      0.011511264375802868     10.000487327610267+0.006854460668628822i
-0.0394335574195311       0.013464316254026576     10.000487327610433+0.006854460653064265i
-0.044945122922415245     0.021907439957443337     10.000487327610251+0.0068544605858991935i
-0.03391175625955506      0.020395039322016        10.000487327610456+0.006854460597922343i
-0.03904225996644282      0.03123622795269456      10.000487327610243+0.0068544605116517806i
0.031236323268193672      -0.0390421837079447      10.00048732761024+0.0068544610709064665i
0.020625534682305328      -0.034741747210421434    10.000487327610431+0.006854461036659198i
0.03904225996644282       -0.03123622795269456     10.000487327610262+0.006854461008776027i
0.028239167673035487      -0.02852193240538412     10.00048732761045+0.006854460987166955i
0.03426123160606659       -0.02131974764629513     10.000487327610474+0.006854460929860391i
0.044945122922415245      -0.021907439957443337    10.000487327610289+0.006854460934528041i
0.03973752794590771       -0.014605324412211618    10.000487327610452+0.006854460876438465i
0.04865686788594568       -0.011511264375802868    10.000487327610317+0.0068544608517950014i
0.04050245573207107       -0.006124547014408487    10.000487327610493+0.006854460808965187i
0.05                      0                        10.000487327610347+0.006854460760248542i
0.04144622117221289       0.0030456789628740205    10.000487327610491+0.006854460735994545i
0.04865695890244647       0.011510879652121941     10.000487327610355+0.006854460668651231i
0.04494507062072065       0.02190754725884285      10.000487327610317+0.006854460585926064i
0.037683889306442536      0.013172049117694321     10.000487327610507+0.006854460655421825i
0.03566386183408023       0.021394117786090155     10.000487327610472+0.0068544605900027365i
0.0390421837079447        0.031236323268193672     10.000487327610296+0.006854460511680639i
-0.029069098265885444     0.028827243897026348     10.000487327610422+0.006854460530829264i
-0.031236323268193672     0.0390421837079447       10.000487327610243+0.006854460449518381i
-0.02190754725884285      0.04494507062072065      10.00048732761026+0.00685446040253845i
-0.02077667870346191      0.03319112914976847      10.000487327610443+0.006854460496104311i
-0.013310283199382376     0.039220003860721386     10.000487327610413+0.006854460448130981i
-0.011510879652121941     0.04865695890244647      10.00048732761029+0.006854460372973277i
0.03123622795269456       0.03904225996644282      10.000487327610271+0.006854460449546993i
0.02879225497302286       0.027235305035840176     10.00048732761048+0.006854460543520472i
0                         0.05                     10.00048732761028+0.006854460362304992i
-0.0039188096053217785    0.03910340284951266      10.000487327610456+0.006854460449058945i
0.005505293154523942      0.041333985821389925     10.000487327610417+0.0068544604313171805i
0.011511264375802868      0.04865686788594568      10.000487327610259+0.006854460373014901i
0.023068305249670143      0.03578802606938222      10.000487327610411+0.006854460475462046i
0.021907439957443337      0.044945122922415245     10.000487327610259+0.006854460402561079i
0.014015779799636105      0.03715159899156458      10.00048732761045+0.006854460464604205i
-7.6193098986299415       -4.602312957647239       8.624733361216112+0.0021017914999693194i
-8                        -4.411764705882353       8.647465321362006+0.0021039021083142386i
-8                        -5                       8.623767782179852+0.0021016866826093503i
-7.415132450478492        -5                       8.600201359608723+0.0020994493923650742i
-7.563892997358224        -4.1157729355256665      8.664556300784701+0.0021055642576092875i
-8                        -3.823529411764707       8.717668674957913+0.00211025089641574i
-6.83026490095698         -5                       8.528598046214187+0.002092427944317968i
-7.117524045312988        -4.484027146828173       8.588909829332108+0.002098489129984171i
-7.543182587104376        -3.53547179744445        8.75554724463165+0.0021138011801090663i
-8                        -3.2352941176470598      8.831791376970248+0.0021198877501948325i
-6.506741268751096        -4.530914492872718       8.48443232684705+0.0020882510341564214i
-6.245397351435468        -5                       8.406289909578238+0.0020796898581946924i
-7.103341082708087        -3.8375323108548067      8.663858991440291+0.0021060636986352586i
-6.686975845232392        -4.099155498426091       8.564084692115348+0.002096815772983713i
-5.934787195093565        -4.526284370806591       8.338364648190295+0.0020728540884019657i
-5.660529801913956        -5                       8.22857651901099+0.002059527452561328i
-7.531037186767155        -2.9481282857753035      8.890376233672244+0.0021250041657759743i
-8                        -2.647058823529412       8.985675163785624+0.0021315211059623213i
-7.0608211554468445       -3.2525804158841396      8.776476080641146+0.002116860772236793i
-6.201763795641475        -4.0548427640252305      8.467016849437924+0.0020879909427239268i
-6.530457715171306        -3.565766339909901       8.627740136643398+0.0021047576684032894i
-7.529959430324272        -2.359326590753025       9.063821066526286+0.002137591777825337i
-8                        -2.0588235294117663      9.173822983587542+0.0021435853346558377i
-5.354751851044673        -4.521606836880397       8.133686206476378+0.0020491220245067994i
-5.075662252392444        -5                       7.988463946740306+0.002029268811429116i
-5.63583937857464         -4.0424000293384745      8.302714307662741+0.002071668335234302i
-7.061029408240517        -2.662583132613442       8.93688284994782+0.0021305693953442392i
-6.595878952689641        -2.9660006287069374      8.789121414635327+0.0021210434984009767i
-5.913656333151081        -3.549837244532724       8.489642381813328+0.0020943588108468946i
-6.159426409878176        -3.138190310264668       8.658179349194993+0.0021119919368820543i
-0.12258152117288645      -0.0670870558769668      9.951727837183377+0.00639219347670377i
-0.10619906567824018      -0.08935022011442621     9.936452806663489+0.006401362187568169i
-0.08473677286178972      -0.10864942894231579     9.92380492883145+0.006411066905325544i
-4.768221365035446        -4.521201625107507       7.860253079989612+0.002013578504788126i
-4.490794702870932        -5                       7.676105659204166+0.0019849464342002196i
-7.528379574012256        -1.769707107353225       9.269098836775598+0.0021498142289211597i
-8                        -1.4705882352941193      9.389661673419173+0.0021544484010298727i
-7.059308933730595        -2.0696647622326365      9.134205952551412+0.002144926059385276i
-5.05192390995024         -4.030516123487867       8.075610606159294+0.002046618390872144i
-5.349990643418712        -3.5379702622116276      8.313544265695258+0.0020797032537803427i
-6.589169542108436        -2.3798012187749102      8.9754539719231+0.0021380124476671025i
-6.130905489281609        -2.6442256486790017      8.80864378375817+0.002129105087433115i
-5.648659830689584        -2.9957605923570636      8.574817216739705+0.002111010728668068i
-7.598918179143803        4.6199131948288885       11.378767112377774+0.0021015125455456337i
-8                        5                        11.377697964296987+0.0021015992695518236i
-8                        4.411764705882343        11.353996303053629+0.0021038173327959367i
-7.415132450478488        5                        11.401268978701381+0.0020993590938549337i
-7.525492212108803        -1.1787629452157085      9.499395776456366+0.0021600142820792645i
-8                        -0.8823529411764723      9.625815586933012+0.002162633321407252i
-7.524479780085247        -0.5888732494849623      9.746054984848605+0.002166736566920456i
-8                        -0.29411764705882604     9.874365533251725+0.002167022460911196i
-7.524726670336666        -6.486081406446853E-5    10.000695213343294+0.0021690711872289644i
-8                        0.2941176470588207       10.127081551688706+0.002167014412789202i
-0.12198351046998848      -0.027876281553387772    9.985487462894946+0.0065449563133309265i
-0.13595425673392894      -0.04348737242186679     9.967516023905816+0.006363079996061844i
-0.15223461308360361      -0.0656174472895635      9.938340942959682+0.006156395480174747i
-0.05947159597865794      -0.12415124887924234     9.912998625528106+0.006412059663601363i
-0.13551677507993576      -0.09259681347524214     9.91374436160602+0.006169736500574836i
-0.11309685764653553      -0.11728346424727554     9.891507458944801+0.006179402201520902i
-0.08575299643307253      -0.13794752541984034     9.872705986292432+0.006183193795706838i
-4.45123562016252         -4.030463138577418       7.769284293726526+0.0020081121790935085i
-4.185185671113206        -4.529818081373783       7.510157773304326+0.0019618917538002482i
-3.905927153349421        -5                       7.277969078896114+0.0019208431697536209i
-7.052539616656955        -1.4771675424179618      9.360447884258042+0.002157936645089224i
-6.58028837646589         -1.7781167615359403      9.202057502874673+0.0021551048684605788i
-4.75150460146545         -3.52945484881178        8.067415453947701+0.0020565460196324253i
-5.056794559875143        -3.0619590349868746      8.3590597910761+0.00209689231168202i
-6.109606036118445        -2.072753757311896       9.021275091780213+0.0021500834088676794i
-5.653825388473091        -2.3701139711349173      8.810986435192108+0.002140405775303006i
-5.242517106804289        -2.6277121544384943      8.594575146445436+0.002126268504718555i
-7.527653136603608        3.506450641651008        11.241058899957467+0.0021141665172682285i
-8                        3.8235294117646963       11.283796823637326+0.0021101686366041443i
-8                        3.235294117647051        11.169665925739546+0.0021198142331296547i
-7.473601104832774        4.1128179552828295       11.342291436277387+0.0021050269453379514i
-7.105857340407747        4.574983312979272        11.420091747597867+0.002097632147732779i
-6.830264900956978        5                        11.472866289670192+0.002092335862033539i
-7.524264626991542        0.5891192465593003       10.255500243851825+0.002166719627331899i
-8                        0.8823529411764666       10.375632922852613+0.002162609387040302i
-7.518720975131546        2.943836515635612        11.110575615864725+0.0021250020593073537i
-8                        2.647058823529404        11.015780630233644+0.0021314568232551944i
-7.521878637785914        1.1794011744696578       10.502395095041228+0.002159989640653889i
-8                        1.4705882352941124       10.611789609592556+0.002154409302779828i
-7.5169573143313535       1.7727614558287104       10.733869487988002+0.0021497396286907903i
-8                        2.0588235294117583       10.827631813107667+0.002143532408637954i
-7.514490961744355        2.3704423378283486       10.94189799749706+0.002137298961090778i
-7.048874217329922        -0.8847109647559301      9.608471707652628+0.0021677740931536032i
-7.047726376210221        -0.29326108144064833     9.869250705793766+0.0021730337221222435i
-7.047256795871632        0.2979028324752789       10.134275625634595+0.0021730102953434077i
-0.17070406091841778      -0.0927432828450293      9.898995506097842+0.0059371644178681645i
-0.14339522606850333      -0.01793165710719194     9.98657351263141+0.006346164483612961i
-0.1647142128678937       -0.0374282635321702      9.964312419967255+0.0061307707367181065i
-0.18365215409351116      -0.061778784667113076    9.933048522250546+0.005941233988112982i
-0.054229631811103574     -0.1537451803227145      9.857360109408269+0.0061776962356684525i
-0.031060600213494143     -0.13462350905658454     9.90482035935817+0.006406852826385152i
-2.569651810301457E-6     -0.13873949678677638     9.900979516596804+0.006400993055063205i
-0.14837562321606         -0.12355735491147662     9.865775643652123+0.005944963521424338i
-0.11868809476057424      -0.15072876910694655     9.836798565895954+0.0059531034890403815i
-0.0842950255397742       -0.1731270610205473      9.811823720686037+0.005947326847827525i
-0.45630539175687695      -4.0751805991841685      1.199574368917539+3.6629879491870663E-4i
-0.5270663060004295       -4.14519485169547        1.6750335304226687+5.080971781043837E-4i
-0.41503998738299414      -4.158422118014789       1.1506094963325+3.48015377132687E-4i
-0.533708855855684        -4.033217899655975       1.6674251233689146+5.114447048431297E-4i
-0.615000320039455        -4.075390990793236       2.0655726114518944+6.298613302199306E-4i
-1.8008158869880955       -5                       4.784687376102455+0.001371838212619841i
-1.4611124987524509       -5                       4.16633389515467+0.0012085910338264017i
-1.6310983244353605       -4.6741875170501075      4.515344245029296+0.001305120947052842i
-3.63041345830237         -4.591890200947318       7.083467882406404+0.0018894508683252825i
-3.3524975931192533       -5                       6.805672575033719+0.0018347348259105886i
-3.152370134345016        -4.630711721388986       6.63533091857784+0.00180418545487845i
-2.8860508870577064       -5                       6.319945062704124+0.0017360742516190333i
-2.5125762498854787       -5                       5.862054157522299+0.0016349176184811958i
-2.721220803295733        -4.6590707304820995      6.15353567065608+0.001703203547738929i
-2.154443670997729        -5                       5.35607965993758+0.0015152678843512954i
-2.3319306438455527       -4.6537242382950685      5.648267061618039+0.0015888796626205134i
-1.977705886372803        -4.63397402413517        5.119913202089731+0.0014612836518225402i
-4.09447583788177         -3.4552288589969864      7.743662578884417+0.0020246208530845244i
-3.864559365820385        -4.032956749768358       7.387855624422215+0.0019530341460663027i
-1.2955157477680377       -4.704101430933417       3.8603486761719488+0.001127912006789352i
-0.6751734966729607       -4.222491165230216       2.3177012817351677+6.984157199200611E-4i
-0.5098192228106162       -4.259384691360554       1.7542801294107555+5.278892225067223E-4i
-0.374625251426417        -4.260860263462418       1.2997471415505542+3.9036481966304596E-4i
-0.30287917302765577      -4.159005285217065       0.7112037216232064+2.1404311144827134E-4i
-1.1276787184086832       -5                       3.5048956886669864+0.0010267468748492495i
-6.572939137190289        -1.1820818588524213      9.45421797075821+0.002169320363892337i
-6.094676023880215        -1.4805299027996117      9.275896898422245+0.00217011953344653i
-4.510953463600385        -3.0451206384424965      8.138250824923077+0.002083225270696806i
-4.780003619694949        -2.590102972620918       8.457492841167763+0.0021262996346707937i
-5.606418060948815        -1.7840168388331894      9.062252497908949+0.0021681813329601477i
-5.088862357967583        -2.0991823048225196      8.794165978571728+0.002160142728964323i
-4.077177365098844        -2.908806347471631       7.989753658853391+0.002082681167325823i
-3.6576998029321546       -3.0575134980893597      7.666619293610572+0.002044276450798084i
-7.072535072336218        3.2419852456786358       11.221187194439324+0.0021170790071048285i
-7.1013575981130215       3.681851869686845        11.310928503762932+0.002108579429948811i
-6.854804442914906        4.080726926128329        11.407095896569231+0.002099481063033271i
-6.55246407355926         4.529601418745902        11.50745721286004+0.0020891211171830157i
-6.245397351435468        5                        11.595185282377905+0.0020795872151644764i
-7.044616525548189        0.8896248892365707       10.395248180188167+0.0021677324862223006i
-6.982827071406714        2.7015837438557573       11.084188892390168+0.002129415717303741i
-7.038767536615246        1.4813943836108392       10.64349342887468+0.002157920399308916i
-7.025581648850636        2.0774449540074063       10.872685948076615+0.002144802605853242i
-6.6903936696794855       3.0765921276606223       11.228599267757438+0.0021185820188923984i
-6.519332424564291        2.776272525000781        11.167633715605033+0.0021260672013360873i
-6.570204799628225        -0.5882490427810522      9.724171441674594+0.0021786807468049322i
-6.569804308398622        0.004756762547158327     10.002970125919704+0.002181901166357945i
-6.5691781889954175       0.5991766037558587       10.282390496952699+0.0021785642715763287i
-0.14282569126497405      0.010429202661038854     10.008456298128008+0.006358698560313863i
-0.19079868772981745      -0.1264712033857364      9.848149798499522+0.005710318968507755i
-0.20792822919834036      -0.08773816219694257     9.895602681725904+0.005730727281294015i
-0.21214997107337533      -0.055633253264435155    9.934959277626206+0.005770547730843468i
-0.17529898607749525      -0.002350379298572804    9.99813774519015+0.006079573255266307i
-0.19678130397828147      -0.0312301899858215      9.965743201820045+0.005903060714768696i
-0.045301622677963484     -0.18883832853017327     9.793318191922928+0.005935109095557587i
-0.01902544124194948      -0.1632007311738381      9.847093156356967+0.006166662852538744i
0.030129006610241316      -0.13466208472509042     9.905047515096975+0.006408538736365869i
0.01707562601607631       -0.1629320073957518      9.84786862057439+0.006170696348782572i
0.05881505344865496       -0.12431981102791463     9.913059934843794+0.006413363039333652i
0.08446211483222138       -0.10858879198753779     9.924111156973149+0.006413249633412839i
0.10629134597472134       -0.08827832561322542     9.937826539100428+0.006407539885000066i
-0.16086040264202767      -0.1622873120645412      9.804981341527986+0.00571173497380778i
-0.12328129363096668      -0.19188122795949814     9.769305865061897+0.005713275162242768i
-0.21186532423526483      -0.17125457966911514     9.779935336676054+0.005469449895914739i
-0.0812634183277134       -0.2146929925494803      9.740814979094289+0.005703400513087845i
-0.73769103616502         -4.048741333811632       2.581693078934398+7.863757254858874E-4i
-0.35                     -4.05                    0
-0.4450189586606242       -3.9943012055862295      1.1052942756103807+3.415130568337071E-4i
-0.5184823720358057       -3.9534590851535394      1.6670951632743478+5.16517698316014E-4i
-0.45712571741511376      -3.907410732412326       1.4053998555934024+4.397216480231695E-4i
-0.61643576682674         -3.960398765613695       2.1681505468952804+6.684123540300218E-4i
-0.5461223485425475       -3.8753469426358036      2.0021933671965755+6.250555984923901E-4i
-0.24752279932672144      -4.05                    0
-1.4480843379456672       -4.38727950290664        4.249646794818844+0.0012434682525851901i
-1.1214420341070848       -4.436493213070532       3.5331999434825705+0.0010438307711025715i
-1.7749675007792416       -4.316826854229295       4.887365926012683+0.0014140238414869684i
-3.304071001429234        -4.133939997395509       6.899366548048499+0.0018677051545056415i
-2.861645058549498        -4.255250643776914       6.415595634010805+0.0017700229499902612i
-2.5290483209870502       -4.354879280687255       5.989460311828106+0.0016755676678266887i
-2.1718198503223465       -4.229037777922392       5.554291533959544+0.001581957398089242i
-0.9336755922078591       -4.175880710775763       3.1412298847461964+9.433144848627927E-4i
-1.2572478603749597       -4.136540630140342       3.9765858014737865+0.001182392144335699i
-3.408640072508437        -3.5240389941564136      7.24022791930709+0.0019555824467278227i
-3.181610246235489        -2.9674069987312217      7.400646684304107+0.002029357578211779i
-0.9584855375312106       -4.730096346168752       3.15257476765072+9.291541196340064E-4i
-0.8161914114182804       -4.452588775050138       2.7923870629178023+8.307862160663029E-4i
-0.5882358570482962       -4.411590414374722       2.172717002423194+6.492742949041323E-4i
-0.43896249498013806      -4.356034898064028       1.6962809946812816+5.079626738321048E-4i
-0.12707137154069553      -4.05                    0
-0.1828887685879508       -4.173508326777288       0.5695442645430645+1.7059119170015336E-4i
-0.2561041674415402       -4.265793432508855       1.0284344379763384+3.0803795363876116E-4i
-0.32868396814620443      -4.36683305851103        1.4557032601581794+4.3536777357705043E-4i
-0.06354069239231906      -4.180925773558476       0.5267324442596603+1.57459365451781E-4i
-5.551115123125783E-17    -4.05                    0
0.06069163041101026       -4.175452986716697       0.50500442010003+1.5096545253776171E-4i
-0.7942449380649155       -5                       2.8344849167149113+8.366682420629853E-4i
0.12707137154069537       -4.05                    0
0.18030047036727595       -4.163407553631501       0.5239291330053685+1.569352085988713E-4i
-6.090895162819989        -0.8839214454970138      9.558256282897874+0.002185390287155174i
-5.6079093697378655       -1.1822887547672103      9.362145131494755+0.002191902044512146i
-4.3264295154931105       -2.576687187331693       8.285186620170878+0.002124543369557076i
-4.518514575388825        -2.128444952809821       8.608354187200597+0.002167547901354153i
-5.11867606020288         -1.4784986437480108      9.128832010155167+0.002196307235354755i
-4.694982223508973        -1.716059635578845       8.900183092090295+0.0021970079454394615i
-3.8317496287273927       -2.546006105156637       8.073482265218539+0.0021242957215363016i
-3.3631806294437987       -2.560907735670408       7.809338077687715+0.0021163081551081662i
-6.614270758500303        3.541623183304439        11.353440816849714+0.00210632983368144i
-6.28127578207634         4.0434838167706895       11.513438624088465+0.002089938493299626i
-5.9689380250675335       4.521435525444697        11.652483631857946+0.0020739270695698518i
-5.660529801913956        5                        11.772906007989453+0.0020594126304471546i
-6.565257719183071        1.191409467516801        10.551892935999144+0.0021692157808672796i
-6.551621885415032        2.3505386887972786       11.020679071235227+0.0021388710317935366i
-6.5487533996006295       1.788012277836178        10.8066738201397+0.002155074907516465i