% Model:              VLR_3_01V03.mph
% Version:            COMSOL 5.5.0.292
% Date:               Jun 7 2020, 21:18
% Dimension:          2
% Nodes:              2784
% Expressions:        1
% Description:        Electric potential
% Length unit:        cm
% x                       y                        V2 (V)
0.08998929695878763       0.043611081537415886     9.999988268219576+0.005593262948791161i
0.09740027152773081       0.022653633402266993     9.999988268219562+0.005593263121152308i
0.11052914318140596       0.04435296718065007      10.032284864661692+0.005347183248913675i
0.0781315280452624        0.06241365495876985      9.999988268219598+0.005593262794132192i
0.09843315168703837       0.06504808237939746      10.045198161598371+0.005360366231108179i
0.1                       0                        9.999988268219552+0.00559326330753038i
0.11867780533938196       0.007142575818807732     10.005159061056155+0.005349686890205347i
0.0825814401453644        0.08344265441103638      10.056499283306863+0.005367322597855019i
0.06241327189725422       0.0781318340440017       9.9999882682196+0.005593262664833683i
0.0974002565227635        -0.02265369791667273     9.999988268219543+0.005593263493963606i
0.11708271641142108       -0.017444375454459614    9.987646340504012+0.005355843603019063i
0.06344080778484039       0.09892906268156314      10.067364280077749+0.005365766724395788i
0.04361064313298144       0.08998950941930808      9.999988268219596+0.005593262567289591i
0.08998969521077675       -0.043610259754689656    9.99998826821954+0.005593263666340502i
0.11081829722056785       -0.04097541239487916     9.971306198973535+0.005358458794746821i
0.04142563473442876       0.11036807069456671      10.076371489532237+0.005361368088993141i
0.02265419578313888       0.09740014072586965      9.999988268219608+0.005593262506328221i
0.09903207576112977       -0.06347358419611365     9.95656365633753+0.005364654411848275i
0.07813204699441734       -0.06241300531509565     9.999988268219541+0.005593263821002778i
0.08286038732078894       -0.08319553555712846     9.943595770223892+0.005367081810021512i
0.06241385453272508       -0.07813136861957454     9.99998826821956+0.005593263950298726i
0.01715740354886006       0.11725149730849332      10.083283864854279+0.0053540299758995935i
0                         0.1                      9.999988268219617+0.005593262484960536i
-0.0064740559030428335    0.11848803093970481      10.08475879658438+0.005352037358312674i
-0.02265421350800062      0.09740013660326112      9.999988268219619+0.005593262506385927i
0.06306868893423338       -0.09928785839661304     9.932060354865591+0.005364544863297709i
0.043611234888071976      -0.08998922264103305     9.99998826821955+0.005593264047844763i
0.022653716388030657      -0.09740025222662757     9.999988268219536+0.005593264108834696i
0.03987009553321275       -0.11193625563233207     9.919389935903107+0.005350194208135809i
-0.04361161765327609      0.08998903714155662      9.999988268219623+0.005593262567327686i
-0.0434681024396428       0.11071218458539905      10.080094263614098+0.005348785740397966i
-0.062414122765496065     0.07813115434584073      9.999988268219631+0.0055932626648553955i
-0.06463337055632401      0.098515307987449        10.067987227753264+0.005362136865760297i
-0.08301512227585264      0.08244129824074012      10.054801363325076+0.005372156762954223i
-0.07813220659018694      0.062412805523773304     9.999988268219631+0.005593262794146435i
-0.09865856047849957      0.06290190099352708      10.041824587915071+0.0053721190976493685i
-0.08998976940816245      0.04361010664818135      9.999988268219612+0.0055932629488131295i
-0.11026640506571476      0.04061354722724132      10.027626796561693+0.005366138251555388i
-0.09740027579126098      0.02265361507102783      9.9999882682196+0.005593263121183484i
0                         -0.1                     9.999988268219528+0.005593264130239794i
0.01163165568303054       -0.12150299204406163     9.901402478276173+0.00531233023587164i
-0.11724412668197655      0.01683037576614881      10.011929444380998+0.00535499717742493i
-0.1                      0                        9.999988268219585+0.005593263307616925i
-0.11839634501386981      -0.006563024507970247    9.995302410941905+0.0053533998945548425i
-0.09740025222662757      -0.022653716388030657    9.999988268219582+0.005593263494001416i
-0.02265369791667273      -0.0974002565227635      9.999988268219518+0.005593264108810444i
-0.01703370475917194      -0.11657424948482137     9.91958451269839+0.005362268922445255i
-0.04125249556134633      -0.10951571589360319     9.927061860670788+0.005371679906904125i
-0.043610259754689656     -0.08998969521077675     9.999988268219534+0.005593264047861916i
-0.08998922264103305      -0.043611234888071976    9.999988268219573+0.005593263666363463i
-0.11059231205095632      -0.04353742504443414     9.968596596854676+0.005350058595911204i
-0.0633442250360934       -0.09844689973531524     9.934318251254425+0.00537126528784625i
-0.06241300531509565      -0.07813204699441734     9.999988268219557+0.00559326395032584i
-0.08301622064827016      -0.08301712296082947     9.94375134164185+0.005367261762291049i
-0.07813136861957454      -0.06241385453272508     9.999988268219562+0.005593263821024971i
-0.09863835650121516      -0.06444571340439449     9.955505010966574+0.005362265375831769i
0.04865695890244647       0.011510879652121941     9.999988268220132+0.005593263156048921i
0.04494507062072065       0.02190754725884285      9.999988268220113+0.0055932630191958795i
0.037683889306442536      0.013172049117694321     9.999988268220308+0.005593263134178575i
0.03566386183408023       0.021394117786090155     9.999988268220282+0.005593263025956819i
0.0390421837079447        0.031236323268193672     9.999988268220099+0.00559326289638114i
0.04144622117221289       0.0030456789628740205    9.999988268220276+0.00559326326747014i
0.05                      0                        9.999988268220106+0.005593263307587369i
0.04050245573207107       -0.006124547014408487    9.999988268220273+0.005593263388191427i
0.04865686788594568       -0.011511264375802868    9.99998826822008+0.00559326345904411i
0.03123622795269456       0.03904225996644282      9.999988268220092+0.0055932627936122825i
0.02879225497302286       0.027235305035840176     9.999988268220308+0.005593262949073231i
0.023068305249670143      0.03578802606938222      9.999988268220239+0.005593262836497845i
0.021907439957443337      0.044945122922415245     9.999988268220108+0.005593262715907395i
0.03973752794590771       -0.014605324412211618    9.999988268220235+0.005593263499816865i
0.044945122922415245      -0.021907439957443337    9.999988268220065+0.005593263595916877i
0.03426123160606659       -0.02131974764629513     9.999988268220271+0.0055932635881959245i
0.03904225996644282       -0.03123622795269456     9.999988268220056+0.005593263718746561i
0.011511264375802868      0.04865686788594568      9.999988268220115+0.005593262667052044i
0.014015779799636105      0.03715159899156458      9.999988268220298+0.005593262818551637i
0.005505293154523942      0.041333985821389925     9.999988268220276+0.00559326276350064i
0                         0.05                     9.999988268220148+0.005593262649351411i
-0.011510879652121941     0.04865695890244647      9.999988268220157+0.005593262667006039i
-0.0039188096053217785    0.03910340284951266      9.99998826822033+0.005593262792858025i
-0.013310283199382376     0.039220003860721386     9.999988268220294+0.005593262791329016i
-0.02190754725884285      0.04494507062072065      9.999988268220156+0.00559326271591304i
-0.031236323268193672     0.0390421837079447       9.999988268220145+0.005593262793625889i
-0.02077667870346191      0.03319112914976847      9.999988268220319+0.005593262870689237i
0.031236323268193672      -0.0390421837079447      9.999988268220049+0.00559326382152468i
0.028239167673035487      -0.02852193240538412     9.999988268220262+0.005593263682998535i
-0.029069098265885444     0.028827243897026348     9.999988268220298+0.005593262928134543i
-0.03904225996644282      0.03123622795269456      9.999988268220132+0.005593262896409248i
-0.044945122922415245     0.021907439957443337     9.999988268220124+0.005593263019238559i
-0.03391175625955506      0.020395039322016        9.999988268220337+0.005593263039126966i
0.02190754725884285       -0.04494507062072065     9.999988268220024+0.005593263899243608i
0.020625534682305328      -0.034741747210421434    9.99998826822025+0.00559326376487211i
0.013350891724150916      -0.03953296223484311     9.999988268220205+0.005593263827940298i
0.011510879652121941      -0.04865695890244647     9.999988268220019+0.005593263948119453i
-0.0394335574195311       0.013464316254026576     9.999988268220301+0.005593263130352032i
-0.04865686788594568      0.011511264375802868     9.99998826822013+0.005593263156105939i
-0.04008614961270931      0.0042958887487078955    9.999988268220326+0.005593263251030776i
-0.05                     0                        9.999988268220127+0.00559326330756513i
0.004428180733670958      -0.03972992267247989     9.999988268220228+0.00559326383053147i
0                         -0.05                    9.99998826822002+0.0055932639657569816i
-0.00509587741559925      -0.0410670399964869      9.999988268220196+0.005593263848133968i
-0.011511264375802868     -0.04865686788594568     9.999988268220031+0.005593263948123424i
-0.0418406543304712       -0.004639395717597255    9.999988268220289+0.005593263368662602i
-0.04865695890244647      -0.011510879652121941    9.999988268220108+0.005593263459105877i
-0.038365431060655174     -0.013213778691250653    9.99998826822029+0.005593263481520359i
-0.04494507062072065      -0.02190754725884285     9.999988268220088+0.0055932635959576845i
-0.021907439957443337     -0.044945122922415245    9.999988268220038+0.005593263899254695i
-0.013580156694836969     -0.03727148349138352     9.999988268220237+0.005593263798179493i
-0.022929265813663627     -0.03549534736926449     9.999988268220202+0.005593263774802334i
-0.03123622795269456      -0.03904225996644282     9.999988268220061+0.005593263821541802i
-0.03629921311157199      -0.022316607631850047    9.999988268220228+0.0055932636013353645i
-0.0390421837079447       -0.031236323268193672    9.99998826822007+0.005593263718772918i
-0.028902516036850862     -0.02799454476993259     9.999988268220251+0.005593263676071422i
3.739338923278618         4.280172670066005        19.59202053756277+2.990356740283697E-5i
3.879862769971442         4.276635566285411        19.424698030324294+4.23587238161756E-5i
3.8016151559625255        4.403222110593403        19.360863093159324+4.674764709894012E-5i
3.959221729613508         4.38888766222818         19.127002127710117+6.403700068601426E-5i
3.9067788309754734        4.488352658088754        19.119891719155202+6.42563098809362E-5i
4.016296814768528         4.278633714475319        19.149888396981158+6.287812638038937E-5i
4.0643131442461815        4.519413108239709        18.813322347357687+8.652609036735771E-5i
4.083640692164292         4.381835167379991        18.873308653559512+8.277120368971642E-5i
4.071097986275381         4.172685519849078        19.15975960800716+6.301446103357094E-5i
3.945387027387387         4.1643714805667384       19.550132794440263+3.347621983596426E-5i
3.816502541672155         4.160134679916224        19.73582841338653+1.9478887767452618E-5i
3.6833708426313194        4.155897792985372        19.82382535462114+1.2919678566261897E-5i
3.6150822038950765        4.239623240198269        19.739453391644417+1.9055753026549332E-5i
3.495041210443651         4.2792431277135545       19.757285202662178+1.7712024639874335E-5i
3.599916173907295         4.416000291154227        19.559741859390133+3.211527489762186E-5i
3.7448568509584717        4.54164150838959         19.305184145530777+5.061985974129056E-5i
3.934513364003888         4.729992558515695        18.933007716759466+7.739538257476888E-5i
3.7411471750929257        4.718557692788818        19.20766598762972+5.755725576031596E-5i
4                         4.05                     20
4.118858757691507         4.078777828051864        19.067334949447964+7.133615066584096E-5i
4.105408504384495         3.9907289445087457       19.118078976726576+6.9268244415155E-5i
4.203388097558426         4.037864092380172        18.678620149234835+1.0164204539525395E-4i
4.158570683199161         4.287386890542519        18.759787880607295+9.183605832967745E-5i
4.082031373102218         5                        18.649729425310003+9.749222378008849E-5i
4.236384462305516         4.683141311660714        18.413607854919736+1.146896371210399E-4i
4.4185160951638345        5                        18.043359927444246+1.4016559810016213E-4i
4.2201443542662025        4.436829101693535        18.522611124506724+1.0802958230738497E-4i
4.2189139175801085        4.1601189363288205       18.63440872673929+1.0266085718698801E-4i
4.208272502759771         3.9436065188016505       18.557050597033662+1.1331949433623422E-4i
4.571961925208333         4.7171412169132605       17.747588697672935+1.6112019411125924E-4i
4.755000817225451         5                        17.410882413129876+1.8338253432220803E-4i
3.551506162711689         4.155456167731733        19.869806417526146+9.517189039294937E-6i
3.415100469272552         4.157660318079351        19.898966464399095+7.370809511907871E-6i
3.359171334488641         4.258731148638811        19.827799903756937+1.2551075233540506E-5i
3.8889104351460464        4.05                     20
3.758427205658066         4.05                     20
3.61936801857231          4.05                     20
3.391058997512096         4.445906987249127        19.679915436170777+2.330891895412481E-5i
3.230805130965347         4.32244486642327         19.82503559133229+1.2739724657401776E-5i
2.915211054740462         4.264302768528605        19.918799590572466+5.9076855707582E-6i
3.04772196960921          4.316224435367335        19.875244065335608+9.078420189180662E-6i
2.895790507369096         4.410191232793222        19.873368451684524+9.211308044739528E-6i
3.4937760572554657        4.704008593000232        19.472127646470682+3.837513005619872E-5i
3.742224213565717         5                        19.149444814557334+6.167567950607475E-5i
4.116998035830199         3.8932429770354293       18.855418484047252+9.258868735418888E-5i
4                         3.95                     20
4.282057574297919         3.994886120132364        18.336737624070423+1.2813736352720127E-4i
4.291553977929286         4.07740242989358         18.366300099173746+1.239851723167194E-4i
4.329799957740634         4.29973255160562         18.28339601943227+1.265324457079725E-4i
4.446963967866372         4.45989228742031         17.99745558232796+1.453257147714605E-4i
4.349062213428281         4.151077236032528        18.21172332575999+1.3383620687181484E-4i
4.217174583958948         3.845659297857603        18.333137338683482+1.3357752763091507E-4i
4.1348206561387           3.8060167185235105       18.52276249561572+1.2163921359317707E-4i
4.324871367711556         3.9002763599753667       18.06817207928555+1.505654894248717E-4i
4.909672277784956         4.708251294193744        17.107834840683868+2.0415034447247895E-4i
5.091676632715828         5                        16.81861577339591+2.2228779182977825E-4i
4.737995207665333         4.432872271200663        17.368203160755538+1.8882910397546336E-4i
3.2704143471768448        4.1651928773770095       19.91752823410546+6.00891349592362E-6i
3.4801615563195325        4.05                     20
3.3409550940667545        4.05                     20
2.7940592291151574        4.285784273979929        19.927500798584987+5.273652156091243E-6i
3.129660241977054         4.185050334327746        19.924955232273714+5.463560583002566E-6i
2.994080883950497         4.16947173986633         19.94737372399183+3.829753527637976E-6i
2.8544889794250823        4.160235524185021        19.961659438266278+2.7893503417668864E-6i
2.7249806106794034        4.4132717277415425       19.904147193708656+6.971386205054243E-6i
2.674281083747179         4.268208296096484        19.944893128792685+4.0081077697756555E-6i
3.12000747644548          4.603919719924138        19.74151561580294+1.879946561793704E-5i
2.8256038994000203        4.585104224445539        19.845311072065677+1.1249354942681516E-5i
3.348227662100417         5                        19.53578970021308+3.3727211652736066E-5i
4.039691474770305         3.821228625517377        18.91179611906472+9.191235293550287E-5i
3.8872480222625168        3.95                     20
3.931250997594006         3.8305087573988343       19.25915179197054+6.532801781897998E-5i
4.096720534465092         3.729790806142199        18.39625344565818+1.3554147111884696E-4i
4.203518651668956         3.7401618860649446       18.117744836964775+1.544044824387009E-4i
4.411657530556231         4.0261177312967025       17.94668835991501+1.5548960147655303E-4i
4.519565993816258         4.204291328296825        17.768522313041014+1.6441029075428264E-4i
4.325303509738481         3.7742258513123343       17.843366265749925+1.715983850696741E-4i
4.4597709553552916        3.837213841131446        17.584843188977484+1.865113973310975E-4i
5.255846129808309         4.684162323969221        16.520525635262302+2.418852385280998E-4i
5.4376934553489455        5                        16.282492120403706+2.5591748923162346E-4i
4.857351699763711         4.161605106803947        16.996377121987937+2.1696791312572533E-4i
5.0602830818181825        4.409270522302228        16.754867806796565+2.2909334665881267E-4i
7.6153606173139305        4.601107139948206        14.566696220127412+3.5065269988946443E-4i
8                         5                        14.569669771948748+3.5048509309559383E-4i
7.409780872709702         5                        14.653906175907649+3.4636616328058575E-4i
8                         4.411764705882353        14.486694014694427+3.5448577367555735E-4i
2.5530764997033084        4.341602086263266        19.940902715676945+4.297907735101485E-6i
3.201748631813976         4.05                     20
2.7227999316275215        4.164753811743607        19.968038620702483+2.3248455865218487E-6i
2.5849182696192017        4.174294776200215        19.97254440205295+1.9968635935978277E-6i
3.0625421695611985        4.05                     20
2.9233357073084205        4.05                     20
2.7841292450556425        4.05                     20
3.75460744771528          3.95                     20
3.8099511233487946        3.827478950749082        19.406057850692335+5.52756008998178E-5i
3.6156191998335467        3.95                     20
3.6787515247751763        3.8226863509283007       19.469937894196445+5.208984186961081E-5i
3.4765569229168727        3.95                     20
3.541853533143582         3.8237813789776034       19.525171988697014+4.9224568044261526E-5i
2.0858090831204184        4.2837565292830595       19.97784970498751+1.6107372959118189E-6i
2.2175008740438997        4.322084655843108        19.968224650174992+2.3106893922528718E-6i
2.089968902176409         4.401135944636948        19.967569762752106+2.358260784560815E-6i
2.5239039488341137        4.634044808623431        19.900437544404536+7.2399158077954946E-6i
2.3637801077917735        4.369733937078471        19.953044403636444+3.4146587687835364E-6i
2.2460292092476104        4.523981628831443        19.94592312196531+3.932354155718998E-6i
2.8640176231357355        5                        19.788593619426166+1.5370225778024223E-5i
3.9905926744547333        3.716268716082168        18.61911484809147+1.2107068051759875E-4i
3.8722817783272667        3.702906842679209        18.7868707980679+1.1128795894320985E-4i
4.064705573934643         3.6172649510008927       18.106959234834495+1.644317919743154E-4i
4.174946195573888         3.619288277746956        17.86443925843493+1.7986205058122793E-4i
4.306972516677031         3.629206097303797        17.578323599929064+1.9751300809998384E-4i
4.665476756501251         3.934370015608001        17.208217248874636+2.0831002900914943E-4i
4.447291136135276         3.6590894423397393       17.31441188526286+2.1243966995852876E-4i
4.584025431488955         3.7292036462565354       17.126702440836045+2.2079682345047994E-4i
5.80700941501795          5                        15.799223918722715+2.8473434906706266E-4i
5.628344863298833         4.639249331947321        15.977776889030167+2.749894071078895E-4i
5.407406467883109         4.348202795372031        16.17766036116828+2.65106993281475E-4i
6.267356903828639         5                        15.320409133363869+3.1171318069663406E-4i
6.039006346349694         4.5932722340201275       15.489871825318255+3.0299850292141763E-4i
4.992324770965579         3.861930639562915        16.492703845006755+2.5472156418782544E-4i
5.199209919113329         4.084690890479605        16.33864866002193+2.5897520125136496E-4i
6.505984680485463         4.543640198393098        15.063795374139248+3.259432402608466E-4i
6.819561745419405         5                        14.911197365081925+3.3340826498938085E-4i
7.104664668038066         4.480513052422154        14.695947191604958+3.4449995803600096E-4i
7.56235754582189          4.11325794143652         14.425731450659667+3.575316686882909E-4i
8                         3.823529411764707        14.242076145850113+3.659289073512976E-4i
2.4480647578680594        4.197744178521113        19.974096068925107+1.8838672140346923E-6i
2.2981541180941383        4.195952367673172        19.980036895318765+1.4517495791087999E-6i
2.1559463682054734        4.181676973433024        19.985744760828865+1.036635764592437E-6i
1.9457710296561552        4.336142148948991        19.978755441356288+1.544851177713844E-6i
2.0120885090169445        4.190803604833135        19.987998091311756+8.727584205674594E-7i
3.3374946460001995        3.95                     20
3.405613214043065         3.8240985836245307       19.558875284573105+4.812456790411881E-5i
3.198432369083526         3.95                     20
3.270085250380614         3.8249217570501677       19.584343587108297+4.762695976697347E-5i
2.6449227828028645        4.05                     20
2.5057163205500865        4.05                     20
3.7434380140192873        3.6884072881510646       18.8864310902304+1.0742104205014098E-4i
3.607857068340631         3.696165896199388        19.02184301818754+9.928029831216217E-5i
3.4670039701871533        3.6994559730487415       19.10581946564619+9.560441929139971E-5i
1.9474962030880578        4.593134085835704        19.963420656141945+2.6599211782815386E-6i
1.7867395154398509        4.381157831530912        19.981316036800937+1.3586390410373138E-6i
1.6659357831121588        4.535222783960445        19.97882664386532+1.5396495741710705E-6i
1.6439672371278402        4.330925179338715        19.987282744568876+9.247561816324534E-7i
1.5162656090300455        4.412707675549875        19.98700364343363+9.450482850460335E-7i
2.2827728508535188        5                        19.91866257562691+5.91439939444377E-6i
3.9396171949464516        3.5933795056415754       18.26771154795824+1.5704216122034906E-4i
3.8188406656003293        3.5613978380525326       18.333673059907923+1.5791972707822693E-4i
4.016571981906962         3.5094667206153014       17.861182894192858+1.9100122533573057E-4i
4.124807058839344         3.493606699367334        17.618642914873586+2.0653427144237503E-4i
4.266199762003521         3.4801908923758          17.312846553396167+2.2522041872626453E-4i
4.4246922435235385        3.5020295028522304       17.052153845717317+2.3822699045529243E-4i
4.78908566372697          3.6768827647670923       16.64147783269139+2.522665528517861E-4i
4.607660544495804         3.555734574268523        16.798708500842796+2.491457821375902E-4i
5.789272798097047         4.236926942748141        15.62850222793933+2.974371617002077E-4i
5.509282639155009         4.034840536193282        15.854362500702468+2.874264919108936E-4i
6.170415423312063         4.143832119484334        15.189214634268106+3.2131259675960167E-4i
5.0114835965671745        3.585629970510133        16.146653620404155+2.832299921358759E-4i
5.32450924466948          3.6967792779262996       15.816446296404823+2.965132010572087E-4i
6.634902995964905         4.044223784431975        14.780128612684605+3.417838325852189E-4i
7.106631635049919         3.8324249254012885       14.421512374898612+3.5865759532479913E-4i
7.547489347284508         3.5302113249404092       14.10504396844223+3.725308221365588E-4i
8                         3.2352941176470598       13.848179953323898+3.8322554862251504E-4i
0.12056535044826479       0.026914980487632988     10.022885978117726+0.005295824534013435i
0.13426138483595942       0.04218236462702644      10.0515170839492+0.0051123183717673515i
0.12296731351957309       0.06536472794435971      10.078117762615863+0.0051270030012562084i
2.3665098582973085        4.05                     20
2.2273033960445305        4.05                     20
2.0880969337917525        4.05                     20
1.8690731840519752        4.2089868616029165       19.989321241127143+7.765322793869495E-7i
1.7289246235937794        4.200463571176024        19.99196523751795+5.842636693919018E-7i
1.9488904715389745        4.05                     20
3.0593700921668523        3.95                     20
3.129924044985276         3.827251715278067        19.609016936909594+4.706191504235974E-5i
3.3406850025573567        3.696432059488214        19.141640888672445+9.606687439094199E-5i
3.2083622256142563        3.7017481839101904       19.195157803692265+9.43772109988204E-5i
2.9203078152501787        3.95                     20
2.989291259422771         3.8242239591410683       19.61269678182489+4.891474564506202E-5i
2.781245538333505         3.95                     20
2.8519127768323447        3.8224237634959293       19.6175455068224+5.056007053634809E-5i
2.6421832614168315        3.95                     20
2.7114225887840835        3.823798623519133        19.6301169023244+5.1170054855168374E-5i
3.5289330455553864        3.5867853192305788       18.685896032552073+1.3788959609683333E-4i
3.661353686589409         3.5320153176497664       18.40010428930992+1.6056329275287548E-4i
3.409405035929343         3.5598816699068045       18.663036416747193+1.4650418470587518E-4i
1.5156398683929873        4.288040600962777        19.991174242650988+6.417782015229294E-7i
1.3724952023198258        4.331211697596128        19.991822258678976+5.946554142365612E-7i
1.5936062486233942        4.181711554583606        19.994352637694785+4.1065747884702385E-7i
1.376436730131307         4.596614728685269        19.985569706680085+1.0493158571601793E-6i
1.2000128466913413        4.371105421212162        19.99299829770351+5.091373640439135E-7i
1.6926104804190238        5                        19.96925320210278+2.235781767153092E-6i
3.9163390404905476        3.458554285634567        17.860395138329057+1.980910138693245E-4i
3.7793941242564575        3.391736564586633        17.823486613950134+2.1169234523329747E-4i
4.037391041323826         3.384528161432139        17.45927549208786+2.2833187075265666E-4i
4.1931514190724055        3.3287416235841585       17.06628250142487+2.540683997883306E-4i
4.372904567924406         3.307694383559818        16.728283157696975+2.720301924725422E-4i
4.547124933905195         3.3802616272657025       16.589490921619277+2.721405116038602E-4i
4.8073813663843685        3.3778662818537084       16.166499452715943+2.927897381343022E-4i
5.82353240716799          3.7826191876781814       15.2950270766008+3.2035576101941977E-4i
6.2885819983149975        3.7677086633372125       14.859309534037191+3.4057985304518964E-4i
5.178264292515948         3.3224350556646174       15.56938341450086+3.223206460209807E-4i
5.588038891366562         3.3323999824099886       15.110755884641156+3.4007492000940573E-4i
6.634434408640699         3.499504106584922        14.426401944578428+3.6150612527409415E-4i
7.081023992511386         3.233926032190198        14.00742633243591+3.789144852872972E-4i
7.534993528435685         2.9430057030720023       13.639939377925286+3.926217569508817E-4i
8                         2.647058823529412        13.324094375521925+4.039660323917125E-4i
0.15219202365176268       0.06229702024216642      10.096873024455872+0.004893052357766956i
0.15763769761580812       0.03637336359138872      10.05545039115228+0.00491617826740791i
0.14167678059894195       0.017791128315960747     10.02237568955387+0.005091900767413594i
0.106712838010067         0.08806649284231574      10.103788854427604+0.005136008300626437i
0.13569264108236676       0.09026773772438854      10.138874039583754+0.004905529598050906i
0.17066873150812284       0.08897634539566454      10.160250165397022+0.004671551634425618i
1.8096840092861968        4.05                     20
1.6704775470334186        4.05                     20
3.0538512670873263        3.705757060977097        19.239198647706605+9.408150139039914E-5i
3.2676157976748805        3.549023222707727        18.690511339451955+1.50811434696602E-4i
3.1308632565717627        3.597495273888176        18.8869044284235+1.3424945804392955E-4i
2.503120984500158         3.95                     20
2.5709378212360297        3.822129290529766        19.632214703781184+5.317284653490774E-5i
2.3640587075834842        3.95                     20