% Model:              VLR_3_01V03.mph
% Version:            COMSOL 5.5.0.292
% Date:               Jun 7 2020, 21:18
% Dimension:          2
% Nodes:              3381
% Expressions:        1
% Description:        Electric potential
% Length unit:        cm
% x                       y                        V2 (V)
-0.043610259754689656     -0.08998969521077675     8.615543150624177
-0.04130391348466197      -0.1106433913365255      8.297793979457948
-0.02265369791667273      -0.0974002565227635      8.501534515052409
-0.016979805975223427     -0.11682016650520503     8.202766669167458
0                         -0.1                     8.461538461553586
-0.06263383237945895      -0.09806864611575233     8.491251598241954
-0.06241300531509565      -0.07813204699441734     8.79796850780148
0.011495363471991269      -0.12252872915351799     8.114942628420495
0.022653716388030657      -0.09740025222662757     8.501534581141106
0.043611234888071976      -0.08998922264103305     8.6155504209169
0.041624055473139986      -0.11351108212765353     8.253675659584005
-0.08206701739128376      -0.08302444820263494     8.722700796907985
-0.07813136861957454      -0.06241385453272508     9.03978685336819
0.06363591945430257       -0.09952344505063786     8.468870076150848
0.06241385453272508       -0.07813136861957454     8.797978944321635
-0.08998922264103305      -0.043611234888071976    9.329057924826134
-0.09835937325025161      -0.06476636100485067     9.003594446107014
0.08301712296082947       -0.08301622064827016     8.722827374646412
0.07813204699441734       -0.06241300531509565     9.039799918234722
-0.09740025222662757      -0.022653716388030657    9.651481286366362
-0.1110143673619004       -0.04395316791889864     9.323797416661998
0.09866999824396167       -0.06315683978730592     9.02835631096697
0.08998969521077675       -0.043610259754689656    9.329072926854886
0.11035856678296607       -0.040654589859128884    9.374544771398973
0.0974002565227635        -0.02265369791667273     9.651481570515784
-0.1                      0                        10.000000000028813
-0.11898953043544787      -0.006387658192004718    9.901728335538595
0.1                       0                        10.000000000002794
0.1185716179807322        0.007133330205912041     10.109743541629426
0.09740027152773081       0.022653633402266993     10.348517436961188
0.11681793996182507       -0.017290094830905198    9.733998541063167
-0.09740027579126098      0.02265361507102783      10.348517154967391
-0.11711570077368715      0.01808194145623844      10.278183714742136
-0.08998976940816245      0.04361010664818135      10.67092471769181
-0.11053232109098145      0.04180510752452123      10.643155500407104
0.08998929695878763       0.043611081537415886     10.670939715964524
0.11044497070349987       0.044060754330434104     10.677857758931
-0.09868971236865892      0.06363107313992156      10.978939586796217
-0.07813220659018694      0.062412805523773304     10.960197008083902
-0.08278694786449456      0.08278566288219573      11.273625582829
-0.062414122765496065     0.07813115434584073      11.20201775919052
-0.06358737277436428      0.09872391796917646      11.518829507241508
-0.04361161765327609      0.08998903714155662      11.384446725276
-0.02265421350800062      0.09740013660326112      11.498463640068778
-0.04313916189860723      0.1108090634676282       11.704754822599613
0.0781315280452624        0.06241365495876985      10.96021007629465
0.09804164722611296       0.0643609116488913       10.990167871524383
0.08234733999736495       0.0829807050607362       11.276626231708702
0.06241327189725422       0.0781318340440017       11.2020282160695
0.06347653394415484       0.09861593372964138      11.517168211232736
0.04361064313298144       0.08998950941930808      11.384453991076592
0.0420714769307773        0.1101188139919511       11.6941355998863
0.02265419578313888       0.09740014072586965      11.498463703487843
0                         0.1                      11.538461538477286
-0.006469235516029825     0.11885125132798172      11.828480789677345
0.018037174033611         0.11777724363320316      11.811957594370028
-0.00509587741559925      -0.0410670399964869      9.368199384686829
-0.011511264375802868     -0.04865686788594568     9.251432801772703
0                         -0.05                    9.230769230785757
-0.021907439957443337     -0.044945122922415245    9.308536570443769
-0.013580156694836969     -0.03727148349138352     9.426592561689567
0.004428180733670958      -0.03972992267247989     9.38877042043959
0.011510879652121941      -0.04865695890244647     9.251431401515884
-0.022929265813663627     -0.03549534736926449     9.45391773280028
-0.03123622795269456      -0.03904225996644282     9.399349846690757
0.013350891724150916      -0.03953296223484311     9.39180058101746
0.02190754725884285       -0.04494507062072065     9.308537375079595
0.031236323268193672      -0.0390421837079447      9.399351019890386
0.020625534682305328      -0.034741747210421434    9.465511581392308
-0.0390421837079447       -0.031236323268193672    9.519441180511045
-0.028902516036850862     -0.02799454476993259     9.569314695867796
0.03904225996644282       -0.03123622795269456     9.519442646893266
0.028239167673035487      -0.02852193240538412     9.561201039930411
0.03426123160606659       -0.02131974764629513     9.672003882377188
0.044945122922415245      -0.021907439957443337    9.662962462204115
-0.03629921311157199      -0.022316607631850047    9.656667574916183
-0.04494507062072065      -0.02190754725884285     9.66296081142497
-0.038365431060655174     -0.013213778691250653    9.79671109707961
-0.04865695890244647      -0.011510879652121941    9.82290954383662
0.03973752794590771       -0.014605324412211618    9.775302701362383
0.04865686788594568       -0.011511264375802868    9.822903624998146
0.04050245573207107       -0.006124547014408487    9.905776199790083
0.05                      0                        10.000000000010397
-0.0418406543304712       -0.004639395717597255    9.928624681290142
-0.05                     0                        10.000000000023338
-0.04008614961270931      0.0042958887487078955    10.066090596156217
-0.04865686788594568      0.011511264375802868     10.177096375035545
-0.0394335574195311       0.013464316254026576     10.207143327007188
-0.044945122922415245     0.021907439957443337     10.33703753782954
-0.03391175625955506      0.020395039322016        10.313769835744813
-0.03904225996644282      0.03123622795269456      10.480557353140338
0.04144622117221289       0.0030456789628740205    10.04685659944049
0.04865695890244647       0.011510879652121941     10.177090456197101
0.04494507062072065       0.02190754725884285      10.337039188608692
0.037683889306442536      0.013172049117694321     10.202646909515193
0.03566386183408023       0.021394117786090155     10.329140273644624
0.0390421837079447        0.031236323268193672     10.480558819522567
-0.029069098265885444     0.028827243897026348     10.443496059975088
-0.031236323268193672     0.0390421837079447       10.600648980143163
-0.02190754725884285      0.04494507062072065      10.69146262495389
-0.02077667870346191      0.03319112914976847      10.510632756170063
-0.013310283199382376     0.039220003860721386     10.60338467479912
-0.011510879652121941     0.04865695890244647      10.748568598517585
0.03123622795269456       0.03904225996644282      10.60065015334281
0.02879225497302286       0.027235305035840176     10.419004692872479
0                         0.05                     10.769230769247708
-0.0039188096053217785    0.03910340284951266      10.601590813087048
0.005505293154523942      0.041333985821389925     10.635907474191617
0.011511264375802868      0.04865686788594568      10.748567198260789
0.023068305249670143      0.03578802606938222      10.55058501646615
0.021907439957443337      0.044945122922415245     10.691463429589751
0.014015779799636105      0.03715159899156458      10.571563061424007
-7.619169492410579        -4.598637900502739       0.22128932022332687
-8                        -4.418327574112066       0.22615135334880473
-8                        -5                       0.22113260739908983
-7.407407407407416        -5                       0.2161146934614182
-7.58462937173334         -4.108890839356425       0.2300161465567079
-8                        -3.836655148224132       0.24244273537810254
-7.103810682912137        -4.465971089045207       0.21312293583373648
-6.814814814814824        -5                       0.20218956072636782
-7.55398508220846         -3.5784420453230776      0.24888085089057785
-8                        -3.254982722336198       0.27448823873945155
-7.119961607939943        -3.861243164402359       0.2254285298318968
-7.1326911462301235       -3.337181779564581       0.24485069642302706
-6.712034337837762        -4.074802454194591       0.20592323491646108
-6.499116794993899        -4.499940300555014       0.19359285940197932
-6.22222222222223         -5                       0.18211609009114849
-7.554552138890311        -3.03129023824512        0.2836522940176207
-7.139900239860307        -2.839490351685323       0.2727946876985527
-8                        -2.681285058837913       0.3323180403720216
-6.786517225941144        -2.3411107568579745      0.25968303435748763
-7.058608129764823        -2.492783164514292       0.28852512874353897
-6.718629947407376        -2.6730236121472464      0.24135289851379452
-6.8107112901731774       -2.042996776591234       0.2702810199823039
-6.460876007661806        -2.152548777922976       0.21370322157737523
-6.615715792305118        -1.8030508397595524      0.22675272142485017
-6.238450944693447        -1.937208660993829       0.17495205699845387
-6.621736023062674        -3.5482064685258843      0.21124514847707745
-6.695708295517437        -3.062308361954451       0.22778128956885932
-6.250546390193092        -3.975244384705106       0.18734558094970197
-6.223943044372067        -3.5809444755106363      0.18919188041540677
-5.951266012666158        -4.514016197386705       0.17225672875507334
-5.629629629629637        -5                       0.15919439873983557
-7.500736365042966        -2.4963594717236246      0.33664854172449393
-7.161724728640445        -2.1576686311628097      0.3317264917463029
-7.005048122117275        -1.797330417913156       0.31943348928269893
-8                        -2.1739568666708937      0.42761918323641007
-6.878494520148092        -1.53094642171426        0.27160321479058824
-6.565449262993921        -1.5203684061813632      0.1906192391409577
-6.351157489510836        -1.6370837221043286      0.16695026602538518
-6.082821145143187        -1.6925359210056796      0.13787027716314126
-6.367188885042041        -2.45176279387215        0.2059878993263692
-6.289274031891437        -2.797584308071456       0.198912109711446
-5.856164405528168        -1.8918792867397651      0.13113550374232344
-6.055839081128238        -2.204389142643474       0.16701684515101511
-6.19250103809643         -3.22093265794509        0.1898267852933548
-5.860751688788386        -3.6076576590938685      0.16960940425480187
-5.666873014752772        -4.071142866825899       0.16054865438355412
-5.358310518967524        -4.540610953688661       0.14822879724417248
-5.037037037037043        -5                       0.13620977223347902
-7.617585022726131        -1.9862210315806261      0.4473475004563025
-7.188432208101636        -1.4923132631253537      0.39323048063004123
-7.038775225866327        -1.339521368593309       0.3071811335452821
-7.174927954173461        -1.2839674758543884      0.3706775893539355
-7.367966895390936        -1.7375735921710402      0.4421671099863782
-8                        -1.7770508616229572      0.5659979239171505
-7.050888528737978        -1.1656625290832143      0.26657384489693253
-7.239033618792962        -1.1405764578272648      0.37956069029537837
-6.880640016691944        -1.2757110528206912      0.22932225342202853
-6.69587018169165         -1.3282688332047432      0.18790531987355227
-6.901304344173652        -1.1088577968623525      0.18378116159091196
-6.364494965297631        -1.444956354861973       0.14542354770909774
-6.486859291613664        -1.2811186068199283      0.13678763132714652
-6.186125425356664        -1.4844180742533606      0.12737643897519837
-5.875175995742134        -1.6403969930407585      0.11298853197819303
-5.9884613221411325       -1.4871605319419794      0.10747675637515654
-5.679914358702026        -1.6724464487153563      0.10066866207352111
-5.528729814387777        -1.8545875246110313      0.10375052045783552
-5.492157897155563        -1.6493940937323788      0.08696881016456033
-5.893744902022436        -2.5399188458288355      0.16257419239624718
-5.883846823696433        -2.883943354474815       0.16770635031214082
-5.539619679872459        -2.229911128250037       0.12502399438501277
-5.6302329394175015       -3.1923084166913926      0.15484974967488696
-5.3376378845891805       -3.6109021795133303      0.1434858399697265
-5.055562384369953        -4.0708088953683665      0.1344301994489413
-4.758315000145677        -4.530940945448407       0.12517493874474153
-4.44444444444445         -5                       0.11501570829713526
-7.358414885959692        -1.2929916387047011      0.5068955408637525
-7.406675511023521        -0.9721430839231832      0.4859848469963372
-7.3934380382579326       -1.1089835354487674      0.5325689595867904
-7.2802806031197225       -1.0005209721616395      0.3395307218047025
-7.7075460880010995       -1.6263408428959296      0.599088153830897
-7.493474367845286        -1.4612900701994704      0.5716463544190903
-8                        -1.4658299786020534      0.7663635149765039
-7.134456017580512        -1.0107914737246595      0.2347664183021073
-6.987082523886988        -1.0002120778998362      0.16249004164261172
-6.770387516401133        -1.1422414444044124      0.15856403073666062
-6.61586954294077         -1.1409159156918713      0.12623772520825638
-6.831996900026685        -0.9945723250060172      0.1181004071615568
-6.4848736778835585       -1.0948854649589         0.09522698200371568
-6.278530832664324        -1.2970518072306934      0.11126449922743718
-6.352772018823026        -1.1448087640686533      0.09149137538567764
-6.076357425353197        -1.2828358577005636      0.0891955707166737
-5.773463864785286        -1.4810189677089998      0.08990112065716872
-5.869719569183269        -1.3106870010110034      0.07762272334643837
-5.571587092294165        -1.483423100620896       0.07770692641181075
-5.292916779312078        -1.9520228147509477      0.09571685211425691
-5.311605765756363        -1.7318713754777022      0.08317396978219309
-5.3689598505334475       -1.5046284141618176      0.06938862205792203
-5.41348120705436         -2.6689725438373024      0.13240182977538886
-5.050238940813328        -2.190723733332455       0.09525048435473017
-5.062633575782919        -3.146168646074866       0.12442955960257117
-4.756086392310923        -3.6057487412940605      0.11818045794148864
-4.456555105305502        -4.066822556171225       0.1117988888446816
-4.154717720143363        -4.533734918653978       0.10468192816800083
-3.8518518518518565       -5                       0.09657414895267692
-7.49175330358929         -0.9299197443437588      0.6401381066970894
-7.430243121922393        -0.8586324990489296      0.37463674134117847
-7.324260595197066        -0.8677398716618987      0.2306134280343198
-7.194714219646424        -0.8793467033449939      0.15536114959993627
-7.524975177533437        -1.0283616350098765      0.7454174525254443
-7.562511680008647        -0.9342987169759901      0.858872528629748
-7.596234215818841        -1.1775664488216955      0.7988433761826557
-7.768322209378627        -1.336675054523116       0.8248684076613068
-7.534361016820844        -0.8561627837013678      0.7342564553387797
-7.605833315281793        -0.8820403317263615      1.0467183613554842
-7.5                      -0.75                    0
-8                        -1.203555544390462       1.0815723637110515
-7.054736613755288        -0.8784301075638464      0.10425192575990812
-6.907217171273972        -0.8729363395011878      0.07168808076052725
-6.6957425427034645       -1.0042575379122902      0.0974352985602026
-6.5604531710701          -0.9937822803747078      0.0767124042808668
-6.763781784682397        -0.8744593411963928      0.05535817358222487
-6.410598421063159        -0.9962728421763776      0.06353311776906566
-6.204612976820752        -1.1440383363766065      0.07763602821367854
-6.277923920827636        -1.0048649258613158      0.056044189142694496
-6.070701539458059        -1.1007666769884517      0.060894012276796174
-5.936350311848178        -1.1557285761018496      0.06145353061720971
-5.7858508094047725       -1.1445265192883172      0.05253571658818084
-5.660584892079312        -1.2830825109371078      0.06274028864561393
-5.45448606588517         -1.309886538019171       0.05639495170584576
-5.65239866793539         -1.0989467933350565      0.04194150132442841
-5.0793249800135225       -1.8060975639775612      0.07701148606559356
-5.166047920341836        -1.5358656260900643      0.06326906494169461
-4.776895513872216        -1.843239126560387       0.06742987820037384
-5.23979510486358         -1.2888742136161304      0.04710140353922642
-4.582863880657401        -1.674630151035349       0.053004144974891074
-4.488440281253783        -1.8359679444667236      0.05818531242599413
-4.423819180900164        -1.6645117913693548      0.048560881453732274
-4.77448518725655         -2.6620316214909407      0.0999204835638939
-4.47591720125644         -2.170628923942824       0.07187391270147546
-4.463877844069006        -3.1370483736221635      0.09937884244360383
-4.16078760351852         -3.607692337101958       0.09689666631212761
-3.8612313745192797       -4.0761405886656314      0.09297346087035448
-3.5605070247350747       -4.539767534040872       0.08768953607432976
-3.259259259259263        -5                       0.08121787266120348
-7.386851504217098        -0.75                    0
-7.253745713548048        -0.75                    0
-7.11430348904341         -0.75                    0
-7.655635586817882        -0.9750090900985864      1.101096008373917
-7.808385376386516        -1.087342407661191       1.1917899678609418
-7.603356950471252        -0.7953253174665701      1.1433468093550683
-7.675575671257759        -0.8514528281583071      1.39869834272197
-7.5970156348363655       -0.6987349090965711      1.422317773940736
-7.5                      -0.6499999999999999      0
-8                        -0.963976389492665       1.6386833093470201
-6.974807342199423        -0.75                    0
-6.835311195355436        -0.75                    0
-6.626610698783615        -0.8743794093183077      0.0442335919170616
-6.486239586124515        -0.8731536579277049      0.03579415250485207
-6.695815048511449        -0.75                    0
-6.34626277725089         -0.8748472109992904      0.030308868432657187
-6.144632346827047        -0.9944297679364491      0.04655408067481156
-6.208664984180937        -0.8747926336105185      0.025819632849087278
-5.991060466646627        -1.0020967166343475      0.04114195018071921
-5.860508464278634        -1.011787277684042       0.03784227451634261
-5.726297365562652        -0.9963810343457679      0.0317867462782609
-5.516745729532657        -1.1527975408763216      0.043362882429808215
-5.3696387322621915       -1.145793302569603       0.03837465959334424
-5.573849696749143        -0.9978179824422286      0.028294085726055792
-5.232018741782919        -1.1008750787438244      0.031116919598033248
-4.9542029513260815       -1.5640114521051744      0.05766627050327005
-5.042398869558023        -1.3197107372019996      0.043861402921933836
-4.729852859210238        -1.5321602036459514      0.049223806589981635
-5.096623205104409        -1.1525230651320204      0.032576495777517
-4.9500695911152075       -1.1507722147546244      0.029664989593228174
-4.18349579953374         -1.8207486665142318      0.04996873738792949
-4.5044824257226335       -1.5005468822309809      0.042211271646089656
-4.287478658729972        -1.5282833128465454      0.03928954793808719
-3.947752731476205        -1.6777725922245572      0.039656314664917515
-3.8678743483092464       -1.8520340655575902      0.044777146716333024
-4.1669322349314335       -2.6592861987777043      0.07806464332452745
-3.8909324511340193       -2.1824051764573245      0.05651182823865825
-3.566144143590391        -1.8948421654342993      0.04106169349188336
-3.8626757761715242       -3.1477734423708768      0.08039347268462821
-3.5661611155997983       -3.623192371413457       0.08007654916339114
-3.2686596778134227       -4.0856338146123035      0.07774676334436424
-2.9678307747373616       -4.543999476003862       0.07391386737334177
-2.6666666666666696       -5                       0.06891663937990093
-7.3885350493463235       -0.6499999999999999      0
-7.43123759546378         -0.536808116225601       2.147338833301998
-7.8077949900311445       -0.8666164560433622      1.7777748262259385
-7.698521949627558        -0.7485550919148457      1.8803350256496791
-7.6825727594141275       -0.6387615772298914      2.4872225414075224
-7.596536726832885        -0.6068235884438156      2.167210047704816
-7.545623858458531        -0.5260465116194988      2.8403020928227174
-8                        -0.7414110796047844      2.6289484305852944
-6.556318901667462        -0.75                    0
-6.416822754823475        -0.75                    0
-6.277326607979488        -0.75                    0
-6.0680125245745105       -0.874616302092772       0.022212695885689582
-6.137830461135501        -0.75                    0
-5.927882973802286        -0.8775133606687543      0.0198297223436201
-5.790543905574904        -0.8765798676013637      0.01739647569490466
-5.650288401923554        -0.8739096536727472      0.015144278280250537
-5.441127810905219        -1.0071912666047946      0.026564913960556543
-5.307648296348648        -0.9946254320596886      0.02300848417382689
-5.507452577191575        -0.8767879815813168      0.0138579685625756
-5.152581129887841        -0.9988747935863931      0.021100787685301464
-4.820134083246798        -1.2978329211305932      0.037149346330620774
-4.606234813651641        -1.315661416485725       0.03410102213032589
-4.812894566267522        -1.103195850729085       0.024215488143947334
-5.021812681318819        -1.0083315758278373      0.02015562658436597
-4.88847387674132         -0.9959458335682337      0.017718443768574343
-4.079538779318305        -1.5308123416337835      0.0358195240043582
-4.396645161186386        -1.2880344180029595      0.02920800291232862
-4.182520989440761        -1.3184344897569087      0.027778045905973405
-3.747958223158491        -1.6772261035953324      0.03645764424389728
-3.8598765819473475       -1.507995489476287       0.03165174071445267
-3.557971751318799        -1.630014532343738       0.03218270847362745
-3.3735788453192397       -1.6949802276171162      0.03203718716087036
-3.1330606342276504       -1.7201229817506885      0.030069605527943476
-3.248335130523907        -1.910194967209179       0.03691889079145964
-3.573289785378603        -2.6955213048964985      0.06345650296169769
-3.2632636542956983       -2.251878772216859       0.04646478853722108
-3.2742157765901045       -3.1805672268078595      0.06660053055228192
-2.9767056586963307       -3.6368943053583282      0.06700699774046302
-2.6777307420636105       -4.091963154674266       0.06574745402496272
-2.3761383271653207       -4.546502406944331       0.06314236445228781
-2.074074074074076        -5                       0.059473800834434785
-7.481629508603542        -0.434106192958283       3.9269298639943533
-7.257558114957555        -0.6499999999999999      0
-7.305675227709593        -0.5347719400582357      1.9427893817239041
-7.365347776379499        -0.42353934159148277     3.817311353379967
-7.118101309697774        -0.6499999999999999      0
-7.183900705254924        -0.5278830235035114      1.9659014329197626
-6.978530695782135        -0.6499999999999999      0
-7.050407038366544        -0.5259690493830417      1.9514163723475944
-6.838960081866496        -0.65                    0
-6.910208126014328        -0.5283134984047426      1.8929694934907786
-7.824815691754707        -0.6404394634943723      3.0677453978351474
-7.690178675038722        -0.5007209321438969      3.8644879081236256
-7.574160644812252        -0.42782023994539603     4.317143768316083
-8                        -0.5203362555764333      4.2799629603100735
-6.699389467950858        -0.6499999999999999      0
-6.770249283135719        -0.5261540910610338      1.9159394236676157
-6.5598188540352185       -0.6499999999999999      0
-6.633100442266632        -0.5246475847377184      1.933997994965931
-6.420248240119579        -0.6499999999999999      0
-6.49466337614851         -0.5242780475913035      1.937009607279647
-5.9983343142915135       -0.75                    0
-5.8588381674475265       -0.75                    0
-5.7193420206035395       -0.75                    0
-5.579845873759552        -0.75                    0
-5.371431833347109        -0.8753253600996113      0.012397798155242494
-5.231159008433779        -0.8733474810929277      0.011074235659153235
-5.440349726915565        -0.75                    0
-5.090271439023444        -0.8760608485090057      0.010321186252179149
-4.677968336884676        -1.1535154105844476      0.025582220196584602
-4.534288743869314        -1.1515904631977076      0.02358799465565414
-4.735494031335967        -1.0008511883687974      0.016549553237919543
-4.952856846040687        -0.8758126994167466      0.009458893155786461
-4.812355840297049        -0.8745424151958715      0.00861785007760508
-3.962650306011951        -1.2901035915659516      0.023921803520012906
-4.392971396732756        -1.1074924283796208      0.019579395127913825
-4.258902298487494        -1.153824540158684       0.020658959324531975
-4.114904117070421        -1.1549612583216264      0.01935220043321209
-3.972265678631644        -1.1137955644676505      0.016318382937268717
-3.7613453281465823       -1.3021658743510842      0.02240427854065034
-3.657644992483676        -1.4804773400574718      0.028094955340998286
-3.4561147685522715       -1.4846540363468252      0.026074455040870647
-3.248254368177765        -1.500649880190018       0.024602624040682187
-3.0392960860681364       -1.4989455885614023      0.022769046938710544
-2.9367558662252025       -1.671930712430362       0.026779124264266495
-2.8799463945738153       -1.927002634535472       0.03293876430184376
-2.7782194596568255       -1.6783944800740536      0.02557143235483129
-2.972820038101825        -2.753559618741406       0.0530174592710288
-2.64776288778114         -2.415968455482189       0.04144754591548678
-2.4495387273557134       -2.005479713366781       0.030546753888094438
-2.6847025320617184       -3.195758858910734       0.0558772560257931
-2.388642851290708        -3.644233268066415       0.05696798424831811
-2.0878129119189395       -4.094322423166772       0.05660787507436421
-1.785520960001588        -4.546079111999524       0.055104333185371716
-1.4814814814814827       -5                       0.052649149396177826
-7.440952166056213        -0.33706984311465293     5.252550754400497
-7.5290659489604455       -0.3409893629436683      5.374266331910225
-7.248986447538231        -0.40650766063113397     3.9307019776478813
-7.335260233064248        -0.28789226200544854     5.824503781577554
-7.1207918096144445       -0.39281917761406165     4.054912854925136
-6.990909583835653        -0.4067985967759346      3.7921680056275258
-6.83474106470521         -0.4069623699018985      3.762624208973372
-7.844589547370942        -0.4202667926173991      5.120772712490241
-7.655129423487479        -0.30712459536428305     6.07795840401373
-8                        -0.29926143154808216     6.519458389537547
-6.70541379599827         -0.3967835924934226      3.9084682849784156
-6.569067876331218        -0.40066977728055025     3.8424528947424363
-6.28067762620394         -0.6499999999999999      0
-6.356526233720136        -0.5230127154216976      1.9551207068451577
-6.1411070122883          -0.6499999999999999      0
-6.220826851951441        -0.5239922597607374      1.9393454608033485
-6.429343223076295        -0.39726627071372267     3.8916164221125773
-6.001536398372661        -0.6499999999999999      0
-6.079668466027388        -0.5235602267402691      1.945620715543
-5.861965784457022        -0.6499999999999999      0
-5.939729075472179        -0.5222937447085105      1.964917598416479
-5.300853580071578        -0.75                    0
-5.161357433227591        -0.75                    0
-5.021861286383604        -0.75                    0
-4.603253841461341        -1.0088140648097286      0.01587678580342212
-4.469092949870598        -0.9966481068752429      0.014105935960009473
-4.671924960610727        -0.8767844595768733      0.00810535217579531
-4.882365139539617        -0.75                    0
-4.74286899269563         -0.75                    0
-3.838021740067771        -1.1459327924963125      0.016719529784104844