% Model:              VLR_3_01V03.mph
% Version:            COMSOL 5.5.0.292
% Date:               Jun 7 2020, 21:19
% Dimension:          2
% Nodes:              3099
% Expressions:        1
% Description:        Electric potential
% Length unit:        cm
% x                       y                        V2 (V)
-0.06845997353350809      -0.34323932179135797     4.719395049375808+5.269334520809078E-10i
-0.13405349149131807      -0.32331047217649334     5.0259927357616725
-0.11561414392656333      -0.3911825448719893      3.981807001981437
-0.034437382977096254     -0.39661169572477223     3.8982816042435062+4.199369125877283E-10i
0                         -0.35                    4.6153846153941185+5.356404740250721E-10i
-0.19189234492572801      -0.3553996965832178      4.5323123602748145
-0.19450083616024763      -0.2909801105453163      5.52338291470702
0.04032822797313675       -0.3946319403816013      3.92873937875175+4.225363918447819E-10i
0.06845984519639875       -0.34323934738850254     4.719394655568983+5.269414183980147E-10i
-0.25276432581609465      -0.3115163982886485      5.207440026350317
-0.24748706258425657      -0.24748768424593623     6.192497165471551
0.11670491760554472       -0.38467142948781013     4.08197800788517
0.1340542543830427        -0.3233101558593644      5.0259976021694355
0.1830019169440351        -0.355797157739144       4.526197573247912
0.19450155247033515       -0.290979631738425       5.523390280951617
-0.290979631738425        -0.19450155247033515     7.007668423562797
-0.31148668538064406      -0.2607980569754469      5.987722200405841
0.253169118528863         -0.31617229150597004     5.135810899910468
0.24748768424593623       -0.24748706258425657     6.1925067294758565
-0.3233101558593644       -0.1340542543830427      7.937626855679571
-0.3582279437740692       -0.19308009068779255     7.029537066376606
0.31292925172484154       -0.2636175018908803      5.944346124756321
0.2909801105453163        -0.19450083616024763     7.007679443690056
-0.3889771123683622       -0.11759684710004017     8.190817736963062
-0.34323934738850254      -0.06845984519639875     8.946771612400422
0.3590804333559425        -0.19428575434733483     7.010988394655427
0.32331047217649334       -0.13405349149131807     7.937638592441707
-0.40364565810999625      -0.03829259825575888     9.410883103801313
-0.35                     0                        10.000000000038554
0.34323932179135797       -0.06845997353350809     8.946769637945758
0.39115357048193145       -0.11883391450281137     8.17178593072372
-0.4025651358011255       0.0414032919047465       10.636973721655195
-0.34323932179135797      0.06845997353350809      11.053230362091455
0.40353684461198364       -0.03754232095142335     9.422425831513786
0.35                      0                        9.999999999999533
-0.38822851938119507      0.1190002644375782       11.830773299080434
-0.32331047217649334      0.13405349149131807      12.062361407593114
0.3845572679262381        0.11746004432345736      11.807077604974609
0.32331058963087567       0.13405320821425934      12.062357049450958
0.3432394318907957        0.06845942152314605      11.053221869586778
0.40097635977216306       0.041325157906783094     10.635771660101803
-0.3572777924113453       0.1908030639675999       12.935431753383108
-0.2909801105453163       0.19450083616024763      12.992320556341413
0.35649099628019626       0.1907609239380072       12.934783445199747
0.2909802080244964        0.19450069032787715      12.992318312738613
-0.3115578439910691       0.25365395567505955      13.902368548876067
-0.24748768424593623      0.24748706258425657      13.807493270551964
-0.25958488914669076      0.31049477513852775      14.776842694461779
-0.19450155247033515      0.290979631738425        14.476609719072874
0.2536601534476814        0.3094665751687903       14.761024233368987
0.1945014757239138        0.29097968303855815      14.476610508290443
0.2474877179217042        0.24748702890839946      13.807492752440368
0.312273632585934         0.2580412513066721       13.969865404719288
-0.19220952521436838      0.35458152554253325      15.455100392979405
-0.1340542543830427       0.3233101558593644       14.974002397852422
-0.06845984519639875      0.34323934738850254      15.280605344451251
-0.11690671170443093      0.3933677028323607       16.051810812818232
-0.03661732974506636      0.39818841785815895      16.12597565936625
0                         0.35                     15.384615384625569
0.037070770633533486      0.3955550812218859       16.085462788036953
0.06846010096177578       0.3432392963754346       15.280604559630229
0.19173314528866253       0.3543790124439168       15.451984806833925
0.13405383836519275       0.32331032835274337      14.974005051587147
0.11591153194898238       0.39047311146152175      16.007278637875515
-0.13714234471252196      -0.213669256196797       6.7127806739146125
-0.18716639151777228      -0.2344541359972478      6.393013292371325
-0.13058075034814043      -0.2700901102197498      5.8447675350978985
-0.06751048477287294      -0.29230520769519597     5.5029968047029
-0.08078360303073458      -0.2239306588499934      6.554912940785397
-0.029640172387038238     -0.24654885107550448     6.20694075269776
0                         -0.3                     5.384615384626144
0.026912991783245556      -0.2379962907198463      6.338518604321116
0.06751150340457515       -0.2923049724312845      5.503000424142592
0.07951537090964342       -0.23724546815779352     6.35006972065835
0.13058460596100485       -0.27008824610858034     5.844796213720822
0.18716975042868783       -0.23445145451556218     6.393054545919511
0.11881194416687056       -0.2067215395501477      6.819668622313352
-0.23445145451556218      -0.18716975042868783     7.120465378045942
-0.1725686306144295       -0.16750231257769443     7.423041344980953
0.2344541359972478        -0.18716639151777228     7.1205170535764255
0.16832548037314976       -0.1712769539256989      7.364969939610991
-0.21763848435927421      -0.13264305796571868     7.959337569784286
-0.27008824610858034      -0.13058460596100485     7.991006062168286
0.20608328831045278       -0.1285088286732392      8.022941097339926
0.2700901102197498        -0.13058075034814043     7.99106537926194
-0.23104157421369514      -0.07848640450456601     8.792516853803967
-0.2923049724312845       -0.06751150340457515     8.961361486116363
0.23866604016211732       -0.08793073655130071     8.64721943767631
0.29230520769519597       -0.06751048477287294     8.96137715734226
-0.25166983111152386      -0.02756926199003925     9.575857507875659
-0.3                      0                        10.000000000034062
0.2433325413927475        -0.03611508846414281     9.444383254401771
0.3                       0                        10.000000000001638
-0.24062836504601606      0.024324684009148466     10.374225907862419
-0.29230520769519597      0.06751048477287294      11.038622842692634
0.2491365269390062        0.015571154846957822     10.239556228418536
0.2923049724312845        0.06751150340457515      11.038638513918562
-0.2374699758057831       0.07957209539152123      11.224186082975175
-0.2700901102197498       0.13058075034814043      12.008934620770816
-0.2048973622497034       0.12225613952534561      11.880863685031095
-0.2344541359972478       0.18716639151777228      12.879482946453429
0.27008824610858034       0.13058460596100485      12.008993937864526
0.22612350886877333       0.07696229557706383      11.184035316574983
0.21335006045497037       0.1290179923287247       11.984892189677886
0.23445145451556218       0.18716975042868783      12.879534621983977
-0.17550947359759164      0.17207325104778176      12.647280785373365
-0.18716975042868783      0.23445145451556218      13.60694545410737
-0.13058460596100485      0.27008824610858034      14.15520378630354
-0.12467309176928316      0.19873769235434327      13.05750295931698
-0.07943223362702809      0.23487051873099038      13.613392595877645
-0.06751150340457515      0.2923049724312845       14.49699957588013
0.18716639151777228       0.2344541359972478       13.606986707655603
0.16997248063049242       0.16707027031819677      12.570311851055932
0.13799443101555328       0.21545210714338547      13.314647802213548
0.13058075034814043       0.2700901102197498       14.155232464926508
0                         0.3                      14.61538461539599
-0.023334371744381684     0.23444762347651082      13.606886515037003
0.06751048477287294       0.29230520769519597      14.49700319531984
0.08394464397083788       0.22287843443972744      13.42889899139004
0.03287526696817692       0.2491270992932752       13.832724604523113
-7.617210336293516        -4.6018779994529915      0.22126000373554283
-8                        -4.418327574112066       0.22618146643960504
-8                        -5                       0.22116272094036618
-7.407407407407416        -5                       0.21614489999461664
-7.576175993408439        -4.1135264015227095      0.22979664972312505
-8                        -3.836655148224132       0.24247460055045336
-7.102468280651719        -4.477536021630181       0.2129817226216202
-6.814814814814824        -5                       0.20221802727910076
-7.523847247572936        -3.559026454489945       0.24910323851515506
-8                        -3.254982722336198       0.2745020949755646
-7.082919118368476        -3.8417937764244723      0.22471368141434392
-7.020027809634518        -3.279560965965081       0.24141930773311823
-6.670027847094658        -4.092795272744226       0.20405264231720488
-6.485594655934237        -4.524953159081558       0.19297921131096749
-6.22222222222223         -5                       0.1821403293522282
-7.513769941727061        -3.039507278508539       0.2812913186174874
-7.039593008176215        -2.7963739484585197      0.26703741933761194
-8                        -2.681285058837913       0.3324398973104077
-6.893292469324473        -2.051246749921415       0.28626152170709174
-6.957246696383734        -2.3608341838851663      0.2833779173756455
-6.548481660176914        -2.213317755202897       0.22695132240023283
-6.673887984331124        -2.5840888054533826      0.2390070933347525
-6.5840177146948315       -2.988442479761515       0.2210737798467097
-6.503485317345624        -3.5634304229928264      0.20464054205163973
-6.1756718631732355       -4.056262983592094       0.18343725176293968
-5.914632851312483        -4.526167089401045       0.17077674820210273
-5.629629629629637        -5                       0.15921528384929323
-7.493398858042305        -2.449056549130817       0.34250817047713733
-7.233462130552236        -2.0545367168529975      0.3570858080105732
-8                        -2.1739568666708937      0.4276617221905393
-7.047016958313591        -1.7838230225815697      0.33190389847061036
-6.680254901195891        -1.8437220710844446      0.2416855167295758
-6.308732441796295        -1.8711308721515125      0.18023517020617655
-6.154466646837162        -2.181621730149695       0.1765648183102078
-5.9642541054687594       -1.9445844722470924      0.14467149869222481
-6.191034847818813        -2.594176291676379       0.18947243743107453
-6.0771081160939175       -3.1127977990938582      0.18245084554654192
-5.871312213645658        -3.579100406628731       0.17017910554443036
-5.604753469542125        -4.051934113554176       0.15779171271291315
-5.325447342734122        -4.526145634170266       0.1469178643099147
-5.037037037037043        -5                       0.1362294468120732
-7.6306142630260645       -1.9503733881008223      0.459358369315598
-7.39030264094276         -1.7302925203605097      0.4516906921888771
-7.221504483974736        -1.5212879636676762      0.4085268954503118
-8                        -1.7770508616229572      0.5659738669551064
-6.871870260271285        -1.4984262195791045      0.2661034466890401
-7.070783674529974        -1.2816362583518328      0.3111376937918306
-6.507198237662852        -1.5878173976002847      0.18769024146677293
-6.257088605980732        -1.622448795884906       0.1521115184070424
-6.857926826876376        -1.2739646576930197      0.2212170742325883
-7.063200676219898        -1.1078293093012856      0.24919992136890298
-7.210489842473606        -1.1319439086761598      0.3534584735872322
-6.922231788320341        -1.1342955863060848      0.20047642961775816
-6.049382935251749        -1.704403882891265       0.1353446253995313
-6.307518885380999        -1.4595168729784609      0.13943874206883605
-6.123051806005333        -1.479469473657229       0.11977234364362978
-5.822721970096162        -1.6997839022930152      0.11378673509436212
-5.65872615497711         -1.8941347634743457      0.11534435831424798
-5.631138023895231        -1.666149004439215       0.09685405434113395
-5.759926727047314        -2.2848702220160164      0.14364480092078694
-5.770290838385472        -2.7374770566877573      0.15742775772885617
-5.32350785995512         -2.0323915300520694      0.10181071452305702
-5.537373067090552        -3.095781132916655       0.14836675296635515
-5.290214362464174        -3.5792124221446024      0.1410078192143888
-5.019970590077037        -4.053932149893056       0.13291118985416275
-4.734582655999141        -4.528293919062976       0.1243219766857729
-4.44444444444445         -5                       0.11503284683734105
-7.348652850206901        -1.303994056587654       0.4984585791828166
-7.403662367374662        -0.9690300197614888      0.4780568994307289
-7.385522277035308        -1.1136370980102954      0.5233712131174707
-7.2703261162549          -0.9914926855130454      0.32240677641734355
-7.707921542533751        -1.6184421653838914      0.6032972562174016
-7.501296467256188        -1.453291865576101       0.5792939338047428
-8                        -1.4658299786020534      0.7664280304394534
-6.655123587924697        -1.311383625448447       0.17497983505357734
-6.436227613654777        -1.3262946543711955      0.13727488799021803
-6.770502950290842        -1.1446934341744945      0.1593738562849786
-6.633471533338428        -1.1112064994070183      0.1210737882333108
-7.12796961515467         -0.9951436027341686      0.22052932789662436
-6.984528460620908        -0.9961271904381828      0.15945802500999998
-6.843884931390622        -1.0035061609719345      0.1245490103724116
-5.450808243400067        -1.7370294497986634      0.09103283023960017
-5.237755261475301        -1.7259903480819652      0.07920604713901987
-5.918061055191331        -1.4943625854944607      0.10221646542815056
-6.21402816360129         -1.2815540433786883      0.1017605973780873
-6.005901718587169        -1.3057608530665503      0.08670497546810002
-5.714798020146821        -1.4950633038893293      0.08736195965496378
-5.5086454324422505       -1.5047315127058418      0.07620830327962201
-5.037438643472588        -1.8329736868779878      0.07677433547219704
-5.286011433876762        -2.5997598377358773      0.12299090363248709
-4.922234362161035        -2.2132510073092133      0.09039429830767064
-4.992295959391227        -3.10649721990891        0.12043371924391044
-4.71417233666015         -3.589362367762          0.1163392405643384
-4.43291317285752         -4.061540143514395       0.11095239653156368
-4.14510521445057         -4.53072935875451        0.10438443347354166
-3.8518518518518565       -5                       0.09658867783791682
-4.764296314598147        -1.8836023955499777      0.06902405366555843
-7.487684344475151        -0.9304246230038051      0.6294908278073006
-7.4287471937781495       -0.8575528430806876      0.36884584212471777
-7.319527272936574        -0.8655926254868088      0.2225628966617144
-7.189286745317472        -0.870798365445637       0.14354996223312333
-7.51743337057139         -1.0313192275421736      0.7293620876309531
-7.558444179375715        -0.9354172965541631      0.8457847933869308
-7.588243012185732        -1.1835703545151568      0.78461989491187
-7.766691438064373        -1.3355502249803515      0.8249979336581125
-7.530134611275834        -0.8588037280805129      0.7176892215773476
-7.603237172189398        -0.8843413010992472      1.0338226596915656
-8                        -1.203555544390462       1.08165463691213
-6.4984024087108985       -1.169976853104304       0.1149121077769721
-6.343077435665798        -1.152627624643976       0.09207275905168043
-6.706683136428697        -0.9966548686366015      0.09641707320197788
-6.551386008664352        -1.0038506140630716      0.07867992962893368
-6.209293892275434        -1.0988467186160726      0.06980870204350206
-7.050020246309739        -0.8726973765534277      0.09871715800836046
-6.909623550087785        -0.8744294048288687      0.07290980434590659
-6.7697397025951584       -0.8748364814473745      0.05610633903392532
-5.305640970206337        -1.5224972417667124      0.06797970393627308
-5.09671208252819         -1.5482820663688424      0.0615470645636273
-5.793984229697314        -1.281610050214984       0.06956855797401411
-6.073517755922158        -1.148102732570385       0.06866475888637265
-5.927946564154697        -1.1470013684139908      0.05978361017414758
-5.59123348596497         -1.3064904690067878      0.06190990690168172
-5.379862224184537        -1.2899055729853734      0.05180342949231141
-4.8770074397230765       -1.575737495058533       0.05595074312934869
-4.696418468719192        -2.648019599728544       0.09630510694557683
-4.394036861799703        -2.141635981747112       0.06822408134363296
-4.4955594461110255       -1.7844557868024196      0.05601266642578333
-4.265500284106274        -1.775386260526777       0.04992149043228889
-4.047451874702788        -1.7299224585499244      0.04351277920338168
-4.074403777858306        -1.9315062502364724      0.051895765672457225
-4.415715913090107        -3.132258572987487       0.09756152537183933
-4.13264912133956         -3.6038751317401316      0.09596080367837152
-3.8468386617216273       -4.0667931694203014      0.09249449444089562
-3.555323260393813        -4.532119538120347       0.08753674734860079
-3.259259259259263        -5                       0.08123029026166588
-3.8025449391703146       -1.8388615978815641      0.0431356151885418
-3.883471671538283        -1.6367841751128285      0.03702325383834598
-3.732206586334251        -1.6341286636662165      0.03466859953442584
-4.638812781614711        -1.570461971915811       0.049020183605569916
-4.409366327363949        -1.543853237305467       0.04242147439396579
-4.198622546517228        -1.5278274587236012      0.037681178502718765
-4.006620025633414        -1.5000669777409814      0.03340136724080355
-7.5                      -0.75                    0
-7.386851504217098        -0.75                    0
-7.253745713548048        -0.75                    0
-7.11430348904341         -0.75                    0
-7.652429656961231        -0.9773436456430356      1.0895449873837249
-7.802687606410568        -1.0886114414144454      1.183026966502319
-7.601568002969277        -0.7976503936251569      1.128277599637024
-7.673609410364933        -0.8524914415933678      1.3881487801162202
-7.595289148974843        -0.6988917325900171      1.4058905889253863
-8                        -0.963976389492665       1.6388883682339053
-6.4153535685985865       -1.0160406755784535      0.06875238215576501
-6.28816665445215         -0.9978375547993357      0.055213197044601155
-6.627597609550861        -0.8754076286064406      0.04466113448649021
-6.486074666114529        -0.87886014558512        0.03742479409563106
-6.133201112260434        -0.9966829681598047      0.046419248298946225
-6.974807342199423        -0.75                    0
-6.835311195355436        -0.75                    0
-6.695815048511449        -0.75                    0
-5.178749681219257        -1.3270045222424842      0.04827950580416423
-4.960791678794633        -1.29746005205742        0.040253310024746754
-5.789933265226486        -1.102909468243948       0.04744951282212469
-5.652946730076666        -1.152394100803257       0.04806422016246802
-5.999795006886044        -1.006343633903345       0.04217096273417487
-5.86590304248867         -0.9955850941151718      0.03573893786832672
-5.510975879438892        -1.1485243661600137      0.042749210483598886
-5.372663829699919        -1.105294950430504       0.034665517524690485
-5.240586295060651        -1.1543902712083842      0.03590009644284497
-4.749672601732653        -1.3401110741666251      0.03833783956229026
-4.126025959664417        -2.6791971506566408      0.07738010305750188
-3.8588964408780733       -2.257323547959899       0.05815255078082116
-3.8327336327660992       -3.166599968128697       0.07993202186144009
-3.5531376624962108       -3.6070500388296947      0.07954752124280819
-3.261011986496469        -4.066232768977531       0.0774231178027154
-2.964637154915298        -4.532167159821674       0.07381280640418685
-2.6666666666666696       -5                       0.06892744526653484
-3.476013042451621        -1.9597706224543665      0.041672157914954856
-3.545371180428881        -1.7225954671912385      0.03514244954123247
-3.8137801211167033       -1.477022607678923       0.02984232414894362
-3.615709783185704        -1.495377338252297       0.028162750841821845
-3.405671660317307        -1.4992694021462183      0.026061648275400414
-4.536974560159415        -1.2950118426118438      0.03175037992599477
-4.318214018372775        -1.3080035271183141      0.02911275668612956
-4.112078321956289        -1.2915105839513077      0.02565950670176923
-3.9104518000280732       -1.302967469387482       0.023922066349449145
-7.5                      -0.6499999999999999      0
-7.806969419632516        -0.8662399019162403      1.7774197327391064
-7.695603240239017        -0.7504023435402161      1.856409119698801
-7.678968823337253        -0.6398106314926125      2.4570923157284037
-7.595594827303518        -0.6054870268821175      2.1740529750269593
-7.544800505944693        -0.526511541987858       2.8294770469634702
-8                        -0.7414110796047844      2.6290379488041165
-6.348969153382441        -0.8778619552627545      0.031137696442104037
-6.210070708739461        -0.8744335278876063      0.025788466888134545
-6.556318901667462        -0.75                    0
-6.416822754823475        -0.75                    0
-6.068204701253088        -0.8754498141861781      0.0223685907896746
-5.08911247103021         -1.1494692626413139      0.032190720254779516
-4.952779218158119        -1.1029328230556548      0.026260159477529372
-4.8169085689678734       -1.1557483785497924      0.027790129169746967
-5.711702711080628        -0.999491841902471       0.031798111896388426
-5.579076338566764        -1.0079646225403989      0.029552526381304022
-5.929996865237221        -0.8752398259745399      0.019519925620337733
-5.788906739073035        -0.874063606687189       0.01703087615796703
-5.447956533990998        -0.9969957026273071      0.02566144973219375
-5.294599527587177        -1.0030936143327531      0.023583949507974118
-5.161683252083136        -1.0122188513623265      0.02235015244673508
-4.665011131800918        -1.1499902250959981      0.025190124453804533
-4.532527070555773        -1.1042168056303105      0.020842933051933674
-3.53345178869962         -2.7283995504956806      0.06333593695922836
-3.251575012133427        -2.3323850417932888      0.04832858832216219
-3.1295361605768672       -1.9756219850510206      0.037188022002023105
-3.2597398656307015       -3.1521101442333452      0.06581979090324976
-2.9678152451062085       -3.6023241321922352      0.06642941451599403
-2.6714788904174824       -4.064503087648163       0.06543893944045555
-2.3731694241595176       -4.531408738935058       0.06305112816873727
-2.074074074074076        -5                       0.05948347140512431
-3.2498211509308415       -1.7041444308812044      0.030883063491597775
-3.21727874518803         -1.4695755245160331      0.02336114534724291
-2.944697841637682        -1.7615950960803026      0.02929271753041533
-3.708720853899682        -1.2826127292581204      0.021164000027289107
-3.499084367678177        -1.3069808152870153      0.020302305089096778
-3.296773289340186        -1.2833586100236885      0.017997895310500788
-4.395705835549036        -1.1539082998284473      0.022102924538322088
-4.255548061438062        -1.1484478102335716      0.020359587297615323
-4.115208489628182        -1.106219158938094       0.017063840346861245
-3.979883312076287        -1.1470416855171104      0.017849440664929203
-3.8316807933167283       -1.142088657903308       0.01651701467984654
-3.698274997839391        -1.0976535042603264      0.013859040524514778
-7.3885350493463235       -0.6499999999999999      0
-7.431049946441254        -0.5355063766837467      2.1688663420854364
-7.481565765057847        -0.4355258645167682      3.9057373275499123
-7.257558114957555        -0.6499999999999999      0
-7.303924607953443        -0.5308820905992151      2.0049882534809065
-7.118101309697774        -0.6499999999999999      0
-7.184795312993013        -0.5238826292286852      2.030103643272041
-6.978530695782135        -0.6499999999999999      0
-7.050858892508663        -0.524095512374549       1.9808336676135945
-6.838960081866496        -0.65                    0
-6.909996891550299        -0.5263841549809647      1.9228751203450702
-7.818156144793449        -0.6395372129143353      3.056161802752431
-7.685841284347821        -0.5036068572353221      3.8159063086055633
-7.574751212517719        -0.42894312660919354     4.304006741057794
-8                        -0.5203362555764333      4.279954462027521
-6.277326607979488        -0.75                    0
-6.137830461135501        -0.75                    0
-5.9983343142915135       -0.75                    0
-6.699389467950858        -0.6499999999999999      0
-6.769650546375702        -0.5256882291953668      1.9230751327045967
-6.5598188540352185       -0.6499999999999999      0
-6.6358502141191575       -0.5263613434683416      1.9076123141280394
-6.420248240119579        -0.6499999999999999      0
-6.492615240372887        -0.5249719017921606      1.9262724745811115
-5.028940688042478        -0.9962342674903393      0.01931098506073749
-4.8740660859909735       -0.9996935051138569      0.017836518463360995
-4.741173486584835        -1.0084324377284912      0.01710108700604759
-5.648320177928973        -0.8762767975754029      0.015410468528099663
-5.511047384490323        -0.8761407143223581      0.013827263997336544
-5.8588381674475265       -0.75                    0
-5.7193420206035395       -0.75                    0
-5.370735774569478        -0.8756074463100649      0.012421161170418022
-5.230312044331483        -0.8779328817791359      0.011479852614203284
-5.092642698449937        -0.8766773786696701      0.010388642738127141
-4.6095888676231365       -0.9956031001135799      0.015127345032351747
-4.454274039026087        -1.0002802947845257      0.014205273937826527
-2.715776515449937        -2.1345131672180866      0.03613304082902113
-2.6726930958057764       -1.7250528441542197      0.02589270515558027
-2.341275788750357        -1.78007494069042        0.024668474707600967
-2.968537025744894        -2.689864219191181       0.05168466062721277
-2.672643111399036        -3.1376046370898725      0.05481853422839345
-2.3772601948818584       -3.597933150320651       0.05631227368718938
-2.0791582762262033       -4.062878546821975       0.05628754745422656
-1.7810670493562824       -4.530228011503197       0.05501049996706748
-1.4814814814814827       -5                       0.05265812189320598
-2.0848548313633204       -1.5848831274477564      0.018833017001020125
-2.0066258573723443       -1.794564005643096       0.022835676462120997
-1.8906591172660931       -1.6152806405967512      0.01855346486533487
-3.0966966184590174       -1.3178682033289186      0.017776174939446655
-3.0284325812926824       -1.5391680400236258      0.02385193730368212
-2.790889591660905        -1.5281451958536838      0.021710002121134612
-2.5307229843101595       -1.4882017471593103      0.018997634187648885
-2.27140408048648         -1.4690422611328575      0.017157550695001703
-3.562340333243085        -1.1515355575439994      0.015108443286798957
-3.419552061951747        -1.1458021746374285      0.0140736478411794
-3.2847972766245457       -1.1076453945765792      0.012088741517615883
-3.1492090108201594       -1.1611796000512415      0.013193667689003043
-3.001084904628244        -1.1570494300709047      0.012386468458486321
-4.322969328807592        -1.0086637877482432      0.013737989899726756
-4.188216075498461        -0.997460577679824       0.01231545828435717
-4.040143924699099        -0.9988010354627399      0.011554431140310802
-3.9060952535779627       -1.0049776032243125      0.011146177494446637
-3.7726091032172366       -0.9925311917532381      0.010006938136369594
-3.6205999300132463       -0.9992349243116203      0.009646182653946797
-7.367473244766193        -0.42011816372893596     3.873970781776508
-7.441861375706625        -0.34787385545166466     5.09704039849146
-7.528028782703672        -0.3523374512323607      5.215381092407108
-7.254096460550332        -0.39596110255373407     4.099146020580007
-7.124232492290308        -0.39235706984461294     4.063637181574575