% Model:              VLR_3_01V03.mph
% Version:            COMSOL 5.5.0.292
% Date:               Jun 7 2020, 21:20
% Dimension:          2
% Nodes:              3454
% Expressions:        1
% Description:        Electric potential
% Length unit:        cm
% x                       y                        V2 (V)
-1.8270913727439153       -0.8134722586817302      8.974647776041873
-1.854368097503255        -0.7492122255824168      9.060780477581595
-1.8968848589689582       -0.8074555185168641      8.995206350840169
-1.7975886712019693       -0.8767411072639045      8.888355113346025
-1.8684695492449017       -0.8726024158591845      8.907859196674385
-1.838730339094434        -0.9361435550861009      8.821216601880932
-1.7658958194126329       -0.9389419337642696      8.801911208544174
-1.7657628254268891       -1.0606897429665312      8.644579932690682
-1.6960970145702927       -1.059837212578299       8.628640594464466
-1.7320516530906418       -0.9999985355119151      8.715332297931072
-1.8045903674521389       -0.9987305515379505      8.73368725947761
-1.6180348804555982       -1.1755692772563593      8.455058335103512
-1.6580759770092384       -1.1183845735992872      8.54186865089312
-1.6921347899351493       -1.1851160871375896      8.46258243259784
-1.7301808677985302       -1.1244420664879673      8.552581912487028
-1.576022722326162        -1.2313213953763789      8.368263045081433
-1.6023395791543555       -1.2970767177316982      8.286806527643025
-1.5320900393664239       -1.2855738451268326      8.281547150999492
-1.6492436006360707       -1.24302435214653        8.373450683841748
-1.5538404483538009       -1.350969097963047       8.198351414896145
-1.4862908391530114       -1.3382598930887217      8.194991546806751
-1.4386809161800385       -1.3893153786737424      8.108692090195222
-1.506389899430641        -1.407187029698047       8.10540210012499
-1.3893182052767965       -1.4386781865610048      8.022762521081392
-1.4588486124778561       -1.4596020417357074      8.016084206014424
-1.3382628154045375       -1.4862882078875281      7.937336225680394
-1.4072576929348317       -1.5105024588752014      7.925920218195834
-1.2855768616442023       -1.5320875082073617      7.852568256646461
-1.3538200910863012       -1.5601768547679125      7.835217993052038
-1.231324651550908        -1.576020178323563       7.768637752197822
-1.2983039079409304       -1.6071529460558318      7.746077436183859
-1.8793856107560087       -0.6840392723252542      9.146749909997574
-1.9237957559723091       -0.7416522417207927      9.082092989298138
-1.9021133134226649       -0.6180331244361026      9.23255723589502
-1.9507352215737552       -0.6754993316089145      9.168457330389842
-1.922523615986301        -0.5512739300701226      9.318208599817604
-1.9741310277773154       -0.6074037321331894      9.255771095246425
-1.9405916361373317       -0.48384305487816526     9.40371332184641
-1.9942913560812872       -0.5377149347287834      9.34379531335773
-1.956295342776008        -0.415822716831225       9.489083707474348
-2.0106452197126727       -0.46697262842868187     9.431960832027327
-1.969615612575539        -0.34729575105187127     9.574334690502575
-2.0239141270628176       -0.39489183737775907     9.520867579054139
-1.1755723723518754       -1.6180326317361413      7.685749381493596
-1.240613409237575        -1.6512897835487867      7.658807756024061
-1.118387843533969        -1.6580737714092937      7.604134989300061
-1.1815135538725083       -1.6927387732013295      7.573642886855576
-0.803901036698673        -1.8955269930196903      7.105529508792323
-0.7492157567102231       -1.8543666708332327      7.157942846095888
-0.8134758632618257       -1.8270897678796263      7.225372155135684
-0.8767447256940895       -1.797586906374097       7.296093241143166
-0.8716632976796667       -1.8673060035395563      7.177681058462777
-0.9389453881774121       -1.7658939826672406      7.3696972298361985
-0.9364025866353307       -1.836686677107928       7.252493534425626
-1.0598406742514284       -1.6960948514756706      7.52405553634821
-1.1214695092669533       -1.731239136582077       7.491379081172844
-1.0000021710325444       -1.732049554120839       7.44580220580141
-0.9988486357881768       -1.803026312328958       7.330884050145543
-1.0604035257450843       -1.7675045152873343      7.411120025096348
-0.20905603470402634      -1.989043884471589       6.790303492585447
-0.2783465658757216       -1.9805360863324843      6.815521809678089
-0.24839240444064387      -2.0466798338112575      6.684856147147925
-0.6840427593340318       -1.8793843415870752      7.094237424080234
-0.7358454030556705       -1.9247712621743476      7.031446105850219
-0.6180364148735531       -1.9021122442932346      7.034705584963329
-0.6681944443541917       -1.9513653914962266      6.962263681711785
-0.5512772462317256       -1.9225226650906264      6.979806863546897
-0.5994325277438942       -1.9729707228409314      6.902163808489237
-0.347298227272644        -1.9696151759501856      6.847448648456887
-0.3202077640738143       -2.0364436927272362      6.716122027121327
-0.41582629427833645      -1.9562945823640023      6.885739635082378
-0.3920593742459842       -2.024229313901648       6.753565639432957
-0.4838468528711764       -1.9405906891889022      6.930001728737534
-0.46171066893908763      -2.009564757378706       6.797206283234691
-0.5305778808941747       -1.992137660000152       6.847438204575787
-1.9805362028419167       -0.27834573686787656     9.65948312772379
-2.038123445856784        -0.3231451569422349      9.608940734329613
-1.9890438248327997       -0.2090566021308754      9.74454771174469
-2.047333381723548        -0.25294709719484615     9.694346782752953
-1.9951281187484384       -0.1395126868041629      9.829548418616016
-2.0527971585220888       -0.18250779468856448     9.779559579354775
-2.055510685955301        -0.10775710369677365     9.869695078144845
-1.9987816601289903       -0.06979881898713512     9.914505953418308
-2                        0                        9.999441709799001
-2.0609503665501987       -0.03532720649297435     9.95695172528027
-1.9987816782866166       0.06979829901750112      10.08437682798544
-2.062255206028271        0.03607510490833479      10.042823764137607
-1.9951281897439634       0.13951167151523933      10.169333752592769
-2.059177115824014        0.10717646336974788      10.128403093072036
-1.989043884471589        0.20905603470402634      10.254334992156378
-2.0540216546597705       0.1774723430639696       10.213209549810644
-1.9805360863324843       0.2783465658757216       10.33940126683759
-2.0473440157378167       0.24819105460711657      10.298799990288432
-1.8543666708332327       0.7492157567102231       10.938106992999735
-1.8270897678796263       0.8134758632618257       11.02423969874691
-1.8992794724261728       0.8055669104085879       11.000871209845803
-1.8793843415870752       0.6840427593340318       10.852137570514193
-1.9538766265359424       0.6739504147195213       10.828029841378138
-1.9021122442932346       0.6180364148735531       10.766330047057762
-1.9284455155662314       0.741161018294935        10.915389620997303
-1.9753020024499035       0.6045140719533442       10.739404320885031
-1.9225226650906264       0.5512772462317256       10.68067876428502
-1.9696151759501856       0.347298227272644        10.424551717699222
-2.038565327939921        0.31910522268817615      10.385028015398719
-1.9562945823640023       0.41582629427833645      10.509804058311895
-2.024487860481131        0.3893598718528136       10.471255851379953
-1.9405906891889022       0.4838468528711764       10.595174689765471
-2.007819137537425        0.46166306202826957      10.560759931410855
-1.9919782415631409       0.5336201637105565       10.650368855964103
-0.13951167151523933      -1.9951281897439634      6.772076470744284
-0.1771390409065029       -2.0538149722584653      6.662269328412726
-0.06979829901750112      -1.9987816782866166      6.761051199912846
-0.10646209602504836      -2.059539453912678       6.645243824628374
0                         -2                       6.757357355040541
-0.035103194808098565     -2.0623753195893224      6.636710967976849
0.06979881898713512       -1.9987816601289903      6.7610397918004805
0.03637159926869011       -2.0608052511375137      6.639804712914462
0.10809367751399274       -2.0559128413425474      6.65240645457551
0.1395126868041629        -1.9951281187484384      6.772054040159872
0.2090566021308754        -1.9890438248327997      6.790270375192454
0.25083587599534446       -2.0483328128729377      6.681974647203098
0.27834573686787656       -1.9805362028419167      6.815478006066435
0.17949720443063702       -2.05339343981245        6.6633029195366404
0.32219822627770994       -2.0394800778485886      6.710623330446388
0.34729575105187127       -1.969615612575539       6.847394174432231
0.39335314841982855       -2.0276084479039898      6.747392318051054
0.415822716831225         -1.956295342776008       6.8856749709965746
0.46398855819921253       -2.0126378037527535      6.791961204018361
0.48384305487816526       -1.9405916361373317      6.92992782210001
0.5338002665713161        -1.9936827925582596      6.84540144278088
0.5512739300701226        -1.922523615986301       6.979724853343218
1.059837212578299         -1.6960970145702927      7.523924252158402
0.9999985355119151        -1.7320516530906418      7.4456753524289425
1.0629423670457063        -1.7674305417563738      7.41206541294462
0.6180331244361026        -1.9021133134226649      7.034615794139287
0.603926932652814         -1.9720863958863324      6.90502264794199
0.6840392723252542        -1.8793856107560087      7.094140179517679
0.6738511321613488        -1.951301895022179       6.964097688848521
0.7492122255824168        -1.854368097503255       7.157838770116743
0.7420210678914594        -1.927472156282746       7.028711434144817
0.9389419337642696        -1.7658958194126329      7.369575657285465
1.0012501679416137        -1.8043339473904214      7.329539229346217
0.8767411072639045        -1.7975886712019693      7.295976919628018
0.9387925961566466        -1.8386088952399318      7.250083155097535
0.8134722586817302        -1.8270913727439153      7.225261717668279
0.874658631982468         -1.87037721656252        7.173482690817747
0.8090597146689837        -1.9002396289060122      7.0991511290649045
-1.797586906374097        0.8767447256940895       11.110532274312801
-1.8671864481822569       0.8693850915045787       11.087228401076269
-1.7658939826672406       0.9389453881774121       11.196975864086342
-1.8376690011825587       0.9360451602881051       11.177774578628027
-1.732049554120839        1.0000021710325444       11.283554931138312
-1.80651341692114         1.000478649597597        11.266992742696935
-1.6960948514756706       1.0598406742514284       11.370246231948665
-1.7715217865140969       1.0631894340639898       11.356118209458858
1.1183845735992872        -1.6580759770092384      7.603999686609495
1.1235519732341643        -1.7287248834237303      7.495959049735745
1.1755692772563593        -1.6180348804555982      7.68561043780259
1.1826837740537655        -1.688762741745858       7.580045323501182
1.2410247463643813        -1.6479511714509527      7.663851837760229
1.2313213953763789        -1.576022722326162       7.768495090851842
1.2986219670247061        -1.605678795519198       7.748232776016194
1.2855738451268326        -1.5320900393664239      7.852422887656598
-1.6580737714092937       1.118387843533969        11.457017648260829
-1.7332729650284489       1.1244674345979522       11.445526583544677
-1.6180326317361413       1.1755723723518754       11.543827403112056
-1.6916889512575732       1.1835290444808584       11.534329230115985
-1.576020178323563        1.231324651550908        11.63062259391541
-1.6458803740231331       1.2409904782598664       11.623689127262574
-1.5320875082073617       1.2855768616442023       11.717337719377147
-1.6014787825378736       1.2996769685736038       11.715861400466963
-1.4862882078875281       1.3382628154045375       11.803892564892871
-1.5555573581321056       1.3535678401071294       11.80355945571907
-1.4386781865610048       1.3893182052767965       11.890190988980999
-1.5067904669382566       1.4051062205501965       11.890453931190281
-1.3893153786737424       1.4386809161800385       11.97611936672451
-1.4577983317810166       1.4573625080395516       11.979991677343499
-1.3382598930887217       1.4862908391530114       12.061544151861638
-1.4067178136079672       1.5051667676027338       12.065500238409351
1.3546198215446106        -1.5599657916109144      7.8356640513550895
1.3382598930887217        -1.4862908391530114      7.937188303888065
1.4081626295330159        -1.5108405140015693      7.925601244928406
1.3893153786737424        -1.4386809161800385      8.02261247144249
1.4386781865610048        -1.3893182052767965      8.108540259650912
1.4587948680407357        -1.4586150874612         8.01730777849073
1.4862882078875281        -1.3382628154045375      8.194838194633094
1.5091747243078597        -1.4055656635000908      8.108416569437132
-1.3509695781981264       1.5529603235545317       12.15416420277029
-1.2855738451268326       1.5320900393664239       12.146310366884443
-1.2313213953763789       1.576022722326162        12.230239060557809
-1.2973812989622218       1.6013012894963756       12.244468079216249
-1.1755692772563593       1.6180348804555982       12.313124656029233
-1.2414989983382099       1.645313315921526        12.330731569739656
-1.1183845735992872       1.6580759770092384       12.394736392726125
-1.1838184108099619       1.6874829529068613       12.41630233210153
-1.059837212578299        1.6960970145702927       12.474812800363871
-1.124522626869659        1.7279413785533049       12.501187983544495
-0.9999985355119151       1.7320516530906418       12.553062727200734
-1.0621542345788608       1.7653498618816745       12.583658452865597
-0.9389419337642696       1.7658958194126329       12.629163461379875
-0.9997999229420774       1.8041944078282475       12.669518075554286
-0.8767411072639045       1.7975886712019693       12.702763222949153
-0.9370262707237496       1.8400613690154703       12.751714018368267
1.5320875082073617        -1.2855768616442023      8.281392598537472
1.5580035553255058        -1.3516563592028505      8.198564972287718
1.576020178323563         -1.231324651550908       8.3681072868446
1.6035294192144827        -1.2960053991860914      8.288462240392548
1.6580737714092937        -1.118387843533969       8.54171158682424
1.6180326317361413        -1.1755723723518754      8.454902117726858
1.689976389961963         -1.1829547027324494      8.464686223800163
1.6478795968189932        -1.2397819634829228      8.377235263528737
1.7652380540276953        -1.0612567209859327      8.643559220717755
1.732049554120839         -1.0000021710325444      8.71517373832826
1.6960948514756706        -1.0598406742514284      8.628482725751438
1.7275840133696683        -1.1230081173307316      8.553620831053534
-0.8134722586817302       1.8270913727439153       12.773479435994185
-0.8721801199490229       1.871653642343861        12.828311077349314
-0.7492122255824168       1.854368097503255        12.840903388391984
-0.8061656057947213       1.8997083188826753       12.89970185067322
1.7658939826672406        -0.9389453881774121      8.801752522776306
1.8047214391601623        -1.0001603185977281      8.731727226767175
1.8390331954065573        -0.9374318297428378      8.819487432147527
1.797586906374097         -0.8767447256940895      8.888195875055025
1.8679685748513462        -0.872540972484351       8.907677318288352
1.8270897678796263        -0.8134758632618257      8.974488271085526
1.8955877215470416        -0.8047899919088299      8.998143496806492
1.8543666708332327        -0.7492157567102231      9.060620795221054
1.8793843415870752        -0.6840427593340318      9.146590038631238
1.925909277433143         -0.738743921182038       9.085908982586147
1.9517794461019449        -0.6725477465481499      9.172104956693943
1.9021122442932346        -0.6180364148735531      9.23239740410114
1.9732733720156386        -0.6045395135260395      9.25901055643928
1.9225226650906264        -0.5512772462317256      9.318048540924716
1.990712688708008         -0.5359580177387063      9.345344499413898
1.9405906891889022        -0.4838468528711764      9.403552486391824
-0.6840392723252542       1.8793856107560087       12.904602923071272
-0.7402245957109256       1.9243075740881934       12.965110224674463
-0.6180331244361026       1.9021133134226649       12.964128235867776
-0.6723657110523399       1.9502371135797452       13.033229875677618
2.006319157163847         -0.4646863906845795      9.434125627562011
1.9562945823640023        -0.41582629427833645     9.488922995178903
-0.5512739300701226       1.922523615986301        13.019020065422403
-0.6030625887483803       1.9723310545509891       13.094424731737329
-0.48384305487816526      1.9405916361373317       13.068817950964169
-0.5334860556577448       1.992852395200964        13.151903924963273
-0.415822716831225        1.956295342776008        13.113071534529396
-0.4644753837489384       2.0105217957854893       13.202715147018322
-0.34729575105187127      1.969615612575539        13.151352910072491
-0.3954873486789302       2.0242736471911864       13.244587410028288
2.0235357707189445        -0.3933677004320386      9.52252316144007
1.9696151759501856        -0.347298227272644       9.5741752196808
2.036323965698533         -0.323266505951865       9.60850161704309
1.9805360863324843        -0.2783465658757216      9.65932556508971
2.043513870108308         -0.2500552185075749      9.697459511601755
1.989043884471589         -0.20905603470402634     9.744391745072154
1.9951281897439634        -0.13951167151523933     9.829392910669545
2.054054925607082         -0.17864915948081642     9.784100350722708
2.058983726415915         -0.10816115054482833     9.869133549381784
1.9987816782866166        -0.06979829901750112     9.914349761801661
2.059415243242203         -0.03591004334348845     9.956077920311786
2                         0                        9.999284814275402
-0.27834573686787656      1.9805362028419167       13.183269471369387
-0.32575057985177863      2.036027703499538        13.280877149374357
-0.2090566021308754       1.9890438248327997       13.208477271183531
-0.25517341423343387      2.047147926274189        13.313857851816577
-0.1395126868041629       1.9951281187484384       13.226693716895872
-0.1840987360257056       2.0561416291936903       13.340299368868655
-0.06979881898713512      1.9987816601289903       13.23770804789477
-0.11214551660460499      2.061701543293234        13.357381402830683
0                         2                        13.241390587874532
-0.03976730563629986      2.0643554998348783       13.365819091520935
2.0617010568831495        0.03591883791162718      10.042479943537215
1.9987816571764048        0.06979890353827216      10.084220625497863
2.0586182354489306        0.10739985915982336      10.128525108628606
1.9951281070758407        0.1395128537303027       10.169178228147286
1.9890437986178802        0.2090568515494133       10.254179011247903
2.0525139081125765        0.17957525312882533      10.21564415193251
0.06979835037280635       1.998781676493267        13.237696691204311
0.03263772172402731       2.0640034433027687       13.365276573618877
0.13951170843000513       1.9951281871626547       13.226671190737436
0.10514514619530949       2.0611942473868345       13.356820205965898
0.2090559915083712        1.9890438890116153       13.208443681670568
0.17749342299779683       2.0557515542786557       13.34020729132878
0.27834637793517847       1.9805361127458312       13.183224490682067
0.25083444797445276       2.046353345227109        13.312912393389402
1.9805361563521657        0.2783460676600089       10.339243673517009
2.0464233158102023        0.2531799083256972       10.304712610156246
1.9696155403119548        0.34729616087951104      10.424392187419285
2.0357607858196034        0.32432611246836757      10.391387928101928
1.9562952390095711        0.4158232050144448       10.509643262386376
2.0241127967367           0.3941605596708084       10.476953294094935
0.3472978314677468        1.9696152457416145       13.1512966952055
0.323409219281446         2.0381884540069497       13.285380639016575
0.4158256290562705        1.9562947237622343       13.113004797766415
0.39389145918079643       2.0265293894881053       13.249133351245336
1.9405914083110758        0.4838439686399288       10.59501417813244
2.0090242077578497        0.46415654424640784      10.563508815863088
1.9225233592980142        0.5512748252491477       10.680518885541288
1.9907034128145258        0.5348600607377001       10.651880283578821
1.9021130360965448        0.6180339779588043       10.766170221240301
1.972229337825232         0.6055845106379643       10.740984474653162
0.48384588019049757       1.9405909317068044       13.06874180025069
0.46237273539815          2.009318461322435        13.200915164857436
0.5512760236420917        1.9225230156638864       13.018935555309335
0.5343579826471558        1.9896531460035152       13.14569860832403
1.8793852732012923        0.6840401997500617       10.851977679960605
1.9502713395016649        0.6741214394221093       10.828638567656283
0.6180350129143284        1.9021126998188056       12.964035690511578
0.6035509746650302        1.971799135111372        13.093223123359882
1.8543677404515986        0.7492131093169914       10.937947102756679
1.9245236540772048        0.7410032867841227       10.915702119610385
0.68404124634702          1.879384892270877        12.904502686112295
0.6711974056580966        1.9512851405481753       13.035369961381372
1.8270909486671019        0.8134732111746207       11.024079954666528
1.8965913726156642        0.8065778677579288       11.002475774546001
0.7492141990753098        1.8543673001603385       12.840796063648648
0.7361898284398549        1.9251758045443226       12.967883468807452
1.7975881572937051        0.8767421609329744       11.110372837466054
1.8684590859675463        0.8716571561932255       11.089677269792103
0.8032386441419623        1.895260697455471        12.892982143203652
0.8134743253572835        1.8270904526006677       12.773365508956163
1.839113277734752         0.9362713188890752       11.177588770355216
1.7658952849272824        0.9389429389859597       11.196816785032269
0.8767432650153197        1.7975876187964461       12.702643313151478
0.872510519745336         1.8684744609280262       12.822714421566173
1.8060293243038217        0.9996537118372697       11.265888205376472
1.7320508983115945        0.9999998428289871       11.283396268493904
0.938944029504763         1.765894705087865        12.629038262062219
0.9369266828498892        1.8384289570063508       12.748925855283508
1.768495468638559         1.061351948793024        11.354329361522462
1.6960962305669225        1.0598384672470975       11.370088055097746
1.0000009167960164        1.7320502782561271       12.552932224073208
0.9982332535864404        1.803196389654596        12.668355669884034
1.658075182358903         1.1183857517178444       11.456860074787178
1.7278029219200657        1.123302199737075        11.445276340609096
1.0600719578019815        1.7641830444283242       12.582449405969738
1.0598395182304123        1.6960955738392598       12.474677982275166
1.618034064568712         1.1755704002292897       11.543670599273481
1.689227740805964         1.1854313217891506       11.537365112348054
1.11838677881049          1.6580744895757535       12.394597728387353
1.1230824971325626        1.7286939630222333       12.50276626668409
1.5760216300567513        1.2313227934190372       11.630466650973867
1.6478110342357182        1.2435186569160626       11.626353230591391
1.1755714015236338        1.6180333370854134       12.312982606403738
1.1840079764511895        1.6905954680347384       12.420861401030033
1.6057228502281546        1.300127692615034        11.715025913099048
1.5320922027482429        1.285571266899675        11.71717648101
1.231323776281266         1.576020862160283        12.23009354839717
1.242340399568159         1.6480759775532947       12.334435892595826
1.5600730258189033        1.3555547921252842       11.804701554762298
1.4862888557443878        1.3382620958878115       11.803740235287256
1.2855793710908479        1.532085402523521        12.146157213874838
1.2974292355842796        1.6018219803796003       12.245072734496015
1.5116326034418415        1.409267415110554        11.89450131761636
1.4386851268717848        1.3893110183533122       11.890028772292503
1.3513963116785197        1.5540399136943155       12.155434282306473
1.3382591795353718        1.4862914816378765       12.06139874433415
1.3893186284307706        1.4386777779250093       11.975965399972585
1.4062766243686495        1.5079415090139572       12.069478227438355
1.460116324110521         1.4603405702952976       11.983256790606376
-1.8012993372159711       -0.7468739503726864      9.054747088792318
-1.7735199553807326       -0.810633682908824       8.968398280919232
-1.731505359175813        -0.7483470567090484      9.041177828874893
-1.7434846714325003       -0.8733620099820621      8.881944200588915
-1.704930941459221        -0.8072963331033365      8.960276653261802
-1.849951825355147        -0.6165859582127701      9.227092367127105
-1.826787462639674        -0.6821638852522921      9.140980179608727
-1.7804865741318114       -0.6228422717347194      9.209548889498135
-1.7581745521577312       -0.6840391644214909      9.128107037429048
-1.7112316055566152       -0.9349793538598219      8.795401728832742
-1.6738682747690692       -0.8700357355551573      8.872673264570766
-1.676801711030548        -0.9954074652548204      8.708795118485424
-1.644779190691069        -0.9260973615279505      8.79318963353784
-1.6402388310653877       -1.054569379920188       8.622157912478363
-1.6015895552042767       -1.1123897233706213      8.53553295837638
-1.5725552837171979       -1.0407968623189916      8.624693059679409
-1.607212529745274        -0.9889143177125134      8.701924380122806
-1.56090299768158         -1.1687950341392876      8.448974414065448
-1.5182306167691497       -1.2237139348331234      8.36254804089086
-1.495213858016401        -1.1510909357198438      8.456149880978097
-1.5335235967533052       -1.0996840791108338      8.535867280907405
-1.473620770484199        -1.2770833272725615      8.276323566382027
-1.4271461636917144       -1.3288167019796304      8.190427552930768
-1.408419885641276        -1.2549235324921446      8.289040074752032
-1.450895956948668        -1.2062379803816932      8.36850884358025
-1.3788559209010685       -1.3788605257226227      8.104954367290274
-1.3609522562941152       -1.305548593175313       8.204208259066334
-1.3288015478830486       -1.4271602735304867      8.020020604390545
-1.3160195195868976       -1.351345014699238       8.125706413240168
-1.277067048697456        -1.473634877821222       7.935815406650498
-1.2648452536696313       -1.399263481379215       8.041074299223135
-1.2237088645521623       -1.5182347034686234      7.852499626528253
-1.2167653943580388       -1.4414959735843424      7.964455256314317
-1.1687911444433463       -1.5609059102555838      7.770270398311728
-1.161638608222939        -1.487508776593312       7.878885378304683
-1.1123857292740746       -1.6015923293108598      7.689359792900736
-1.1106331951137565       -1.5251734229351783      7.80602468998375
-1.8891943965148756       -0.48316097956767345     9.398958349634494
-1.8707629602472144       -0.5502235423599025      9.313083717809528
-1.8201590091947661       -0.4940548257270086      9.377772654554398
-1.802865339884278        -0.5554551923641046      9.298112128011157
-1.9052232000457043       -0.415481116306874       9.484727019835518
-1.8374128627282766       -0.4256349425376665      9.465689079894977
-1.918837286763348        -0.3472225034854046      9.570459598640051
-1.8507993201274608       -0.3629568567707482      9.545492373695403
-1.938739656872281        -0.20925712143377764     9.741939424733937
-1.9300166533260548       -0.2784523619653734      9.65619210526052
-1.8725348579382437       -0.23068764838380684     9.712155507733188
-1.8631100358371473       -0.2933667548398549      9.633421120336934
-0.7468696923521035       -1.8013011027159989      7.248046666043568
-0.682159979948414        -1.8267889209639903      7.185181610671129
-0.6970266621861201       -1.7531535351905028      7.31570739760744
-0.6165826266554207       -1.8499529357545026      7.126465283202005
-0.6374743052074284       -1.7760720629911555      7.26061499201301
-1.0545652952642082       -1.6402414572325361      7.610026463144064
-1.0534503245083802       -1.5648607182833552      7.727189250038394
-0.9954032856875075       -1.6768041921591548      7.532556148452476
-0.999358406537355        -1.5997388407405986      7.655886007124116
-0.810629285472221        -1.7735219653375582      7.314624822921945
-0.7630434121763456       -1.7252775573977486      7.381203037376756
-0.8733576653109006       -1.743486847797451       7.384496783764166
-0.8204724825775075       -1.6985051419688129      7.442387602138537