% Model:              VLR_3_01V03.mph
% Version:            COMSOL 5.5.0.292
% Date:               Jun 7 2020, 21:12
% Dimension:          2
% Nodes:              3099
% Expressions:        1
% Description:        Electric potential
% Length unit:        cm
% x                       y                        V2 (V)
-0.06845997353350809      -0.34323932179135797     9.840938156074868+0.8814862525574804i
-0.13405349149131807      -0.32331047217649334     9.850515839662423+0.8287842732967593i
-0.11561414392656333      -0.3911825448719893      7.746805891354369+0.6473103666288432i
-0.034437382977096254     -0.39661169572477223     7.983293053886638+0.7032052870460893i
0                         -0.35                    9.837650782180333+0.8995449685829299i
-0.19189234492572801      -0.3553996965832178      8.102487187905977+0.6125134999009011i
-0.19450083616024763      -0.2909801105453163      9.865915265818193+0.7439017372177247i
0.04032822797313675       -0.3946319403816013      8.038552011212117+0.7074522120261465i
0.06845984519639875       -0.34323934738850254     9.84093800558931+0.8814867111182672i
-0.25276432581609465      -0.3115163982886485      8.435687533863428+0.5525216574839494i
-0.24748706258425657      -0.24748768424593623     9.886386044113863+0.6308122263327375i
0.11670491760554472       -0.38467142948781013     7.954841693207243+0.6658449847454349i
0.1340542543830427        -0.3233101558593644      9.85051647651677+0.8287800986851716i
0.1830019169440351        -0.355797157739144       8.195531367504111+0.6296817056955603i
0.19450155247033515       -0.290979631738425       9.86591503155778+0.7439032261112674i
-0.290979631738425        -0.19450155247033515     9.911030620386478+0.49434318479079603i
-0.31148668538064406      -0.2607980569754469      8.62749856901893+0.4507085964250452i
0.253169118528863         -0.31617229150597004     8.323543596763102+0.5456488202397595i
0.24748768424593623       -0.24748706258425657     9.886386664057408+0.6308089915302927i
-0.3233101558593644       -0.1340542543830427      9.938856883321638+0.33993026320574177i
-0.3582279437740692       -0.19308009068779255     8.993544015529094+0.33457281109807185i
0.31292925172484154       -0.2636175018908803      8.560529266745759+0.4467155451032721i
0.2909801105453163        -0.19450083616024763     9.911031268566976+0.494339890677194i
-0.3889771123683622       -0.11759684710004017     9.399027605017503+0.20547806122065002i
-0.34323934738850254      -0.06845984519639875     9.968826641167297+0.1733608273691818i
0.3590804333559425        -0.19428575434733483     8.970198590297274+0.33377058265369536i
0.32331047217649334       -0.13405349149131807     9.938857344442747+0.33992783051464226i
-0.40364565810999625      -0.03829259825575888     9.807667639162618+0.0674141056254033i
-0.35                     0                        9.999993823153828-1.3070068280185686E-6i
0.34323932179135797       -0.06845997353350809     9.968826655748849+0.173360832904509i
0.39115357048193145       -0.11883391450281137     9.373869655031504+0.20445157616669604i
-0.4025651358011255       0.0414032919047465       10.20585603982835-0.07324826933650692i
-0.34323932179135797      0.06845997353350809      10.031161010815948-0.17336354499336612i
0.40353684461198364       -0.03754232095142335     9.811844577679905+0.06616176118377759i
0.35                      0                        9.999993832177402-1.3015993670137699E-6i
-0.38822851938119507      0.1190002644375782       10.60588044035785-0.20831902631382024i
-0.32331047217649334      0.13405349149131807      10.061130182266007-0.3399298473910741i
0.3845572679262381        0.11746004432345736      10.566990487942311-0.21087812374579953i
0.32331058963087567       0.13405320821425934      10.061130105333618-0.3399293455469741i
0.3432394318907957        0.06845942152314605      10.031160814286277-0.17336241951973194i
0.40097635977216306       0.041325157906783094     10.201105865079969-0.07384733191415228i
-0.3572777924113453       0.1908030639675999       10.969823789600392-0.3348175949625883i
-0.2909801105453163       0.19450083616024763      10.088956470066858-0.49434302537095887i
0.35649099628019626       0.1907609239380072       10.960516001886079-0.3362903341500348i
0.2909802080244964        0.19450069032787715      10.088956512099609-0.4943431938404996i
-0.3115578439910691       0.25365395567505955      11.254312698379131-0.4520145781907221i
-0.24748768424593623      0.24748706258425657      10.113601364641859-0.6308136182361284i
-0.25958488914669076      0.31049477513852775      11.634828085494592-0.5376720089572271i
-0.19450155247033515      0.290979631738425        10.134072765511826-0.7439068734682865i
0.2536601534476814        0.3094665751687903       11.530190215075782-0.5529250139257743i
0.1945014757239138        0.29097968303855815      10.134072331296132-0.7439042994537625i
0.2474877179217042        0.24748702890839946      10.11360127893968-0.6308133435653547i
0.312273632585934         0.2580412513066721       11.336737325272752-0.449529671779279i
-0.19220952521436838      0.35458152554253325      11.878219824423892-0.6136529372411701i
-0.1340542543830427       0.3233101558593644       10.149471506650169-0.8287853667896187i
-0.06845984519639875      0.34323934738850254      10.1590489918241-0.8814869909431179i
-0.11690671170443093      0.3933677028323607       12.335158926968546-0.638978669598715i
-0.03661732974506636      0.39818841785815895      12.079601875264155-0.6965284093363472i
0                         0.35                     10.162336133281459-0.8995443563614728i
0.037070770633533486      0.3955550812218859       11.985204225707792-0.7058214515589932i
0.06846010096177578       0.3432392963754346       10.159049004200172-0.8814866566170217i
0.19173314528866253       0.3543790124439168       11.866809193842355-0.6150818928869736i
0.13405383836519275       0.32331032835274337      10.14947167993959-0.828786578164341i
0.11591153194898238       0.39047311146152175      12.231954417919638-0.6490820666028904i
-0.13714234471252196      -0.213669256196797       9.885416888375582+0.6300840806613739i
-0.18716639151777228      -0.2344541359972478      9.874517281468915+0.6903186716215169i
-0.13058075034814043      -0.2700901102197498      9.854888345922282+0.7976688238789059i
-0.06751048477287294      -0.29230520769519597     9.842507823097238+0.8652270647636501i
-0.08078360303073458      -0.2239306588499934      9.879648449701689+0.6615005923551839i
-0.029640172387038238     -0.24654885107550448     9.867295960132356+0.7291726419210851i
0                         -0.3                     9.838179755599757+0.8888082553510865i
0.026912991783245556      -0.2379962907198463      9.87192386593681+0.7037709568155298i
0.06751150340457515       -0.2923049724312845      9.84250817847508+0.8652254721483388i
0.07951537090964342       -0.23724546815779352     9.87244774615039+0.7010286767339101i
0.13058460596100485       -0.27008824610858034     9.854889350057459+0.7976633047597709i
0.18716975042868783       -0.23445145451556218     9.87451838917321+0.6903117174021335i
0.11881194416687056       -0.2067215395501477      9.889075263239873+0.6098890285199906i
-0.23445145451556218      -0.18716975042868783     9.900223829942203+0.5493615166151126i
-0.1725686306144295       -0.16750231257769443     9.910404172619762+0.49294243706712376i
0.2344541359972478        -0.18716639151777228     9.900225610898138+0.5493515157938355i
0.16832548037314976       -0.1712769539256989      9.908359266557737+0.5041635277913867i
-0.21763848435927421      -0.13264305796571868     9.929272254326078+0.3893883832124529i
-0.27008824610858034      -0.13058460596100485     9.930626791562378+0.38224070182804204i
0.20608328831045278       -0.1285088286732392      9.931429257983913+0.3774565936589267i
0.2700901102197498        -0.13058075034814043     9.93062889963583+0.3822290241641868i
-0.23104157421369514      -0.07848640450456601     9.958204860985786+0.23015634131279514i
-0.2923049724312845       -0.06751150340457515     9.964225021025314+0.19720646254880528i
0.23866604016211732       -0.08793073655130071     9.953197938828087+0.2577579849704924i
0.29230520769519597       -0.06751048477287294     9.964225638337298+0.19720327788233952i
-0.25166983111152386      -0.02756926199003925     9.985338156836622+0.08074525729167203i
-0.3                      0                        9.999993888749627-1.7539884338493417E-6i
0.2433325413927475        -0.03611508846414281     9.98078415881403+0.10582201909131671i
0.3                       0                        9.99999396232722-1.9274250764907432E-6i
-0.24062836504601606      0.024324684009148466     10.012934400800333-0.07128666145935664i
-0.29230520769519597      0.06751048477287294      10.035762091683775-0.19720637612011396i
0.2491365269390062        0.015571154846957822     10.008272860209287-0.045613739465210947i
0.2923049724312845        0.06751150340457515      10.035762669307331-0.1972094758650275i
-0.2374699758057831       0.07957209539152123      10.042342240647717-0.23326234586086841i
-0.2700901102197498       0.13058075034814043      10.069358565802801-0.382230716664593i
-0.2048973622497034       0.12225613952534561      10.065222430055776-0.3590944028973682i
-0.2344541359972478       0.18716639151777228      10.09976162535654-0.549352360721741i
0.27008824610858034       0.13058460596100485      10.069360685814289-0.3822424707632684i
0.22612350886877333       0.07696229557706383      10.040984601690065-0.22574722644650522i
0.21335006045497037       0.1290179923287247       10.068798690449762-0.37881899581875833i
0.23445145451556218       0.18716975042868783      10.099763591532643-0.5493630652361388i
-0.17550947359759164      0.17207325104778176      10.09202035241641-0.5063624372765927i
-0.18716975042868783      0.23445145451556218      10.125469047628542-0.6903136081736981i
-0.13058460596100485      0.27008824610858034      10.145098330809295-0.7976660231730816i
-0.12467309176928316      0.19873769235434327      10.106586846219235-0.5861559796905421i
-0.07943223362702809      0.23487051873099038      10.126255786670866-0.6939820408099939i
-0.06751150340457515      0.2923049724312845       10.157479629141086-0.8652285693338954i
0.18716639151777228       0.2344541359972478       10.125470199749238-0.6903207362221453i
0.16997248063049242       0.16707027031819677      10.08936385124255-0.4917234415226233i
0.13799443101555328       0.21545210714338547      10.115526694986809-0.6353437802051402i
0.13058075034814043       0.2700901102197498       10.145099129946466-0.7976710222479131i
0                         0.3                      10.161807451528956-0.8888089027576896i
-0.023334371744381684     0.23444762347651082      10.12614667596184-0.693247531782993i
0.06751048477287294       0.29230520769519597      10.157479399151766-0.8652281808862607i
0.08394464397083788       0.22287843443972744      10.119760565320803-0.6583379194588393i
0.03287526696817692       0.2491270992932752       10.134083721536818-0.7368195901775725i
-7.617210336293516        -4.6018779994529915      0.22126000373556604
-8                        -4.418327574112066       0.22618146643962866
-8                        -5                       0.2211627209403891
-7.407407407407416        -5                       0.21614489999463937
-7.576175993408439        -4.1135264015227095      0.22979664972314887
-8                        -3.836655148224132       0.24247460055047823
-7.102468280651719        -4.477536021630181       0.21298172262164242
-6.814814814814824        -5                       0.20221802727912172
-7.523847247572936        -3.559026454489945       0.24910323851518043
-8                        -3.254982722336198       0.2745020949755924
-7.082919118368476        -3.8417937764244723      0.22471368141436718
-7.020027809634518        -3.279560965965081       0.2414193077331431
-6.670027847094658        -4.092795272744226       0.20405264231722614
-6.485594655934237        -4.524953159081558       0.19297921131098753
-6.22222222222223         -5                       0.18214032935224697
-7.513769941727061        -3.039507278508539       0.28129131861751594
-7.039593008176215        -2.7963739484585197      0.2670374193376395
-8                        -2.681285058837913       0.3324398973104411
-6.893292469324473        -2.051246749921415       0.2862615217071215
-6.957246696383734        -2.3608341838851663      0.283377917375675
-6.548481660176914        -2.213317755202897       0.2269513224002566
-6.673887984331124        -2.5840888054533826      0.23900709333477757
-6.5840177146948315       -2.988442479761515       0.22107377984673263
-6.503485317345624        -3.5634304229928264      0.2046405420516608
-6.1756718631732355       -4.056262983592094       0.18343725176295875
-5.914632851312483        -4.526167089401045       0.17077674820212038
-5.629629629629637        -5                       0.1592152838493096
-7.493398858042305        -2.449056549130817       0.34250817047717236
-7.233462130552236        -2.0545367168529975      0.3570858080106103
-8                        -2.1739568666708937      0.427661722190583
-7.047016958313591        -1.7838230225815697      0.331903898470645
-6.680254901195891        -1.8437220710844446      0.2416855167296009
-6.308732441796295        -1.8711308721515125      0.18023517020619526
-6.154466646837162        -2.181621730149695       0.17656481831022625
-5.9642541054687594       -1.9445844722470924      0.14467149869223983
-6.191034847818813        -2.594176291676379       0.18947243743109438
-6.0771081160939175       -3.1127977990938582      0.18245084554656074
-5.871312213645658        -3.579100406628731       0.1701791055444479
-5.604753469542125        -4.051934113554176       0.15779171271292944
-5.325447342734122        -4.526145634170266       0.1469178643099297
-5.037037037037043        -5                       0.13622944681208707
-7.6306142630260645       -1.9503733881008223      0.4593583693156456
-7.39030264094276         -1.7302925203605097      0.45169069218892427
-7.221504483974736        -1.5212879636676762      0.40852689545035475
-8                        -1.7770508616229572      0.565973866955165
-6.871870260271285        -1.4984262195791045      0.26610344668906777
-7.070783674529974        -1.2816362583518328      0.3111376937918628
-6.507198237662852        -1.5878173976002847      0.18769024146679222
-6.257088605980732        -1.622448795884906       0.15211151840705814
-6.857926826876376        -1.2739646576930197      0.22121707423261122
-7.063200676219898        -1.1078293093012856      0.24919992136892888
-7.210489842473606        -1.1319439086761598      0.35345847358726923
-6.922231788320341        -1.1342955863060848      0.20047642961777903
-6.049382935251749        -1.704403882891265       0.1353446253995454
-6.307518885380999        -1.4595168729784609      0.13943874206885043
-6.123051806005333        -1.479469473657229       0.11977234364364224
-5.822721970096162        -1.6997839022930152      0.11378673509437397
-5.65872615497711         -1.8941347634743457      0.11534435831425997
-5.631138023895231        -1.666149004439215       0.09685405434114408
-5.759926727047314        -2.2848702220160164      0.14364480092080192
-5.770290838385472        -2.7374770566877573      0.1574277577288724
-5.32350785995512         -2.0323915300520694      0.10181071452306764
-5.537373067090552        -3.095781132916655       0.14836675296637036
-5.290214362464174        -3.5792124221446024      0.1410078192144031
-5.019970590077037        -4.053932149893056       0.13291118985417616
-4.734582655999141        -4.528293919062976       0.12432197668578539
-4.44444444444445         -5                       0.11503284683735249
-7.348652850206901        -1.303994056587654       0.49845857918286934
-7.403662367374662        -0.9690300197614888      0.47805689943077917
-7.385522277035308        -1.1136370980102954      0.5233712131175255
-7.2703261162549          -0.9914926855130454      0.3224067764173773
-7.707921542533751        -1.6184421653838914      0.6032972562174638
-7.501296467256188        -1.453291865576101       0.5792939338048032
-8                        -1.4658299786020534      0.7664280304395333
-6.655123587924697        -1.311383625448447       0.1749798350535952
-6.436227613654777        -1.3262946543711955      0.13727488799023221
-6.770502950290842        -1.1446934341744945      0.1593738562849951
-6.633471533338428        -1.1112064994070183      0.1210737882333233
-7.12796961515467         -0.9951436027341686      0.22052932789664734
-6.984528460620908        -0.9961271904381828      0.15945802501001657
-6.843884931390622        -1.0035061609719345      0.1245490103724244
-5.450808243400067        -1.7370294497986634      0.09103283023960974
-5.237755261475301        -1.7259903480819652      0.07920604713902817
-5.918061055191331        -1.4943625854944607      0.10221646542816125
-6.21402816360129         -1.2815540433786883      0.10176059737809792
-6.005901718587169        -1.3057608530665503      0.08670497546810906
-5.714798020146821        -1.4950633038893293      0.0873619596549729
-5.5086454324422505       -1.5047315127058418      0.07620830327963002
-5.037438643472588        -1.8329736868779878      0.07677433547220498
-5.286011433876762        -2.5997598377358773      0.12299090363249966
-4.922234362161035        -2.2132510073092133      0.09039429830767988
-4.992295959391227        -3.10649721990891        0.12043371924392253
-4.71417233666015         -3.589362367762          0.11633924056435001
-4.43291317285752         -4.061540143514395       0.11095239653157467
-4.14510521445057         -4.53072935875451        0.10438443347355202
-3.8518518518518565       -5                       0.0965886778379262
-4.764296314598147        -1.8836023955499777      0.06902405366556548
-7.487684344475151        -0.9304246230038051      0.629490827807368
-7.4287471937781495       -0.8575528430806876      0.36884584212475713
-7.319527272936574        -0.8655926254868088      0.22256289666173787
-7.189286745317472        -0.870798365445637       0.1435499622331383
-7.51743337057139         -1.0313192275421736      0.7293620876310304
-7.558444179375715        -0.9354172965541631      0.8457847933870213
-7.588243012185732        -1.1835703545151568      0.7846198949119529
-7.766691438064373        -1.3355502249803515      0.8249979336581984
-7.530134611275834        -0.8588037280805129      0.7176892215774254
-7.603237172189398        -0.8843413010992472      1.0338226596916777
-8                        -1.203555544390462       1.0816546369122426
-6.4984024087108985       -1.169976853104304       0.11491210777698398
-6.343077435665798        -1.152627624643976       0.09207275905168993
-6.706683136428697        -0.9966548686366015      0.09641707320198778
-6.551386008664352        -1.0038506140630716      0.07867992962894178
-6.209293892275434        -1.0988467186160726      0.06980870204350931
-7.050020246309739        -0.8726973765534277      0.09871715800837076
-6.909623550087785        -0.8744294048288687      0.07290980434591411
-6.7697397025951584       -0.8748364814473745      0.05610633903393105
-5.305640970206337        -1.5224972417667124      0.06797970393628018
-5.09671208252819         -1.5482820663688424      0.06154706456363368
-5.793984229697314        -1.281610050214984       0.06956855797402138
-6.073517755922158        -1.148102732570385       0.06866475888637975
-5.927946564154697        -1.1470013684139908      0.05978361017415377
-5.59123348596497         -1.3064904690067878      0.06190990690168818
-5.379862224184537        -1.2899055729853734      0.05180342949231681
-4.8770074397230765       -1.575737495058533       0.055950743129354406
-4.696418468719192        -2.648019599728544       0.09630510694558649
-4.394036861799703        -2.141635981747112       0.06822408134363983
-4.4955594461110255       -1.7844557868024196      0.05601266642578896
-4.265500284106274        -1.775386260526777       0.04992149043229387
-4.047451874702788        -1.7299224585499244      0.04351277920338597
-4.074403777858306        -1.9315062502364724      0.05189576567246236
-4.415715913090107        -3.132258572987487       0.09756152537184898
-4.13264912133956         -3.6038751317401316      0.09596080367838089
-3.8468386617216273       -4.0667931694203014      0.09249449444090464
-3.555323260393813        -4.532119538120347       0.08753674734860921
-3.259259259259263        -5                       0.0812302902616735
-3.8025449391703146       -1.8388615978815641      0.043135615188545966
-3.883471671538283        -1.6367841751128285      0.0370232538383496
-3.732206586334251        -1.6341286636662165      0.03466859953442916
-4.638812781614711        -1.570461971915811       0.04902018360557484
-4.409366327363949        -1.543853237305467       0.04242147439397002
-4.198622546517228        -1.5278274587236012      0.03768117850272252
-4.006620025633414        -1.5000669777409814      0.03340136724080684
-7.5                      -0.75                    0
-7.386851504217098        -0.75                    0
-7.253745713548048        -0.75                    0
-7.11430348904341         -0.75                    0
-7.652429656961231        -0.9773436456430356      1.0895449873838408
-7.802687606410568        -1.0886114414144454      1.1830269665024435
-7.601568002969277        -0.7976503936251569      1.1282775996371492
-7.673609410364933        -0.8524914415933678      1.3881487801163699
-7.595289148974843        -0.6988917325900171      1.405890588925551
-8                        -0.963976389492665       1.638888368234077
-6.4153535685985865       -1.0160406755784535      0.06875238215577216
-6.28816665445215         -0.9978375547993357      0.05521319704460687
-6.627597609550861        -0.8754076286064406      0.044661134486494815
-6.486074666114529        -0.87886014558512        0.037424794095634956
-6.133201112260434        -0.9966829681598047      0.046419248298951034
-6.974807342199423        -0.75                    0
-6.835311195355436        -0.75                    0
-6.695815048511449        -0.75                    0
-5.178749681219257        -1.3270045222424842      0.04827950580416923
-4.960791678794633        -1.29746005205742        0.040253310024750855
-5.789933265226486        -1.102909468243948       0.047449512822129655
-5.652946730076666        -1.152394100803257       0.048064220162473074
-5.999795006886044        -1.006343633903345       0.042170962734179245
-5.86590304248867         -0.9955850941151718      0.03573893786833044
-5.510975879438892        -1.1485243661600137      0.042749210483603396
-5.372663829699919        -1.105294950430504       0.034665517524694135
-5.240586295060651        -1.1543902712083842      0.03590009644284873
-4.749672601732653        -1.3401110741666251      0.03833783956229414
-4.126025959664417        -2.6791971506566408      0.07738010305750949
-3.8588964408780733       -2.257323547959899       0.058152550780826755
-3.8327336327660992       -3.166599968128697       0.07993202186144775
-3.5531376624962108       -3.6070500388296947      0.07954752124281574
-3.261011986496469        -4.066232768977531       0.07742311780272265
-2.964637154915298        -4.532167159821674       0.07381280640419347
-2.6666666666666696       -5                       0.06892744526654071
-3.476013042451621        -1.9597706224543665      0.041672157914958784
-3.545371180428881        -1.7225954671912385      0.03514244954123577
-3.8137801211167033       -1.477022607678923       0.029842324148946525
-3.615709783185704        -1.495377338252297       0.028162750841824524
-3.405671660317307        -1.4992694021462183      0.02606164827540285
-4.536974560159415        -1.2950118426118438      0.03175037992599797
-4.318214018372775        -1.3080035271183141      0.029112756686132463
-4.112078321956289        -1.2915105839513077      0.02565950670177178
-3.9104518000280732       -1.302967469387482       0.023922066349451484
-7.5                      -0.6499999999999999      0
-7.806969419632516        -0.8662399019162403      1.7774197327392929
-7.695603240239017        -0.7504023435402161      1.8564091196990036
-7.678968823337253        -0.6398106314926125      2.457092315728683
-7.595594827303518        -0.6054870268821175      2.1740529750272284
-7.544800505944693        -0.526511541987858       2.8294770469638615
-8                        -0.7414110796047844      2.6290379488043887
-6.348969153382441        -0.8778619552627545      0.03113769644210725
-6.210070708739461        -0.8744335278876063      0.025788466888137195
-6.556318901667462        -0.75                    0
-6.416822754823475        -0.75                    0
-6.068204701253088        -0.8754498141861781      0.02236859078967692
-5.08911247103021         -1.1494692626413139      0.03219072025478282
-4.952779218158119        -1.1029328230556548      0.026260159477532054
-4.8169085689678734       -1.1557483785497924      0.02779012916974979
-5.711702711080628        -0.999491841902471       0.03179811189639175
-5.579076338566764        -1.0079646225403989      0.029552526381307124
-5.929996865237221        -0.8752398259745399      0.019519925620339756
-5.788906739073035        -0.874063606687189       0.01703087615796879
-5.447956533990998        -0.9969957026273071      0.02566144973219642
-5.294599527587177        -1.0030936143327531      0.023583949507976567
-5.161683252083136        -1.0122188513623265      0.022350152446737395
-4.665011131800918        -1.1499902250959981      0.025190124453807056
-4.532527070555773        -1.1042168056303105      0.02084293305193576
-3.53345178869962         -2.7283995504956806      0.06333593695923427
-3.251575012133427        -2.3323850417932888      0.048328588322166584
-3.1295361605768672       -1.9756219850510206      0.03718802200202648
-3.2597398656307015       -3.1521101442333452      0.06581979090325575
-2.9678152451062085       -3.6023241321922352      0.06642941451599994
-2.6714788904174824       -4.064503087648163       0.06543893944046107
-2.3731694241595176       -4.531408738935058       0.0630511281687422
-2.074074074074076        -5                       0.05948347140512852
-3.2498211509308415       -1.7041444308812044      0.03088306349160059
-3.21727874518803         -1.4695755245160331      0.02336114534724502
-2.944697841637682        -1.7615950960803026      0.0292927175304179
-3.708720853899682        -1.2826127292581204      0.021164000027291137
-3.499084367678177        -1.3069808152870153      0.02030230508909867
-3.296773289340186        -1.2833586100236885      0.01799789531050242
-4.395705835549036        -1.1539082998284473      0.0221029245383243
-4.255548061438062        -1.1484478102335716      0.020359587297617342
-4.115208489628182        -1.106219158938094       0.017063840346862917
-3.979883312076287        -1.1470416855171104      0.01784944066493095
-3.8316807933167283       -1.142088657903308       0.016517014679848143
-3.698274997839391        -1.0976535042603264      0.013859040524516105
-7.3885350493463235       -0.6499999999999999      0
-7.431049946441254        -0.5355063766837467      2.1688663420858085
-7.481565765057847        -0.4355258645167682      3.9057373275505185
-7.257558114957555        -0.6499999999999999      0
-7.303924607953443        -0.5308820905992151      2.004988253481366
-7.118101309697774        -0.6499999999999999      0
-7.184795312993013        -0.5238826292286852      2.030103643272661
-6.978530695782135        -0.6499999999999999      0
-7.050858892508663        -0.524095512374549       1.9808336676144307
-6.838960081866496        -0.65                    0
-6.909996891550299        -0.5263841549809647      1.9228751203462178
-7.818156144793449        -0.6395372129143353      3.056161802752752
-7.685841284347821        -0.5036068572353221      3.815906308606004
-7.574751212517719        -0.42894312660919354     4.304006741058365
-8                        -0.5203362555764333      4.27995446202795
-6.277326607979488        -0.75                    0
-6.137830461135501        -0.75                    0
-5.9983343142915135       -0.75                    0
-6.699389467950858        -0.6499999999999999      0
-6.769650546375702        -0.5256882291953668      1.9230751327062185
-6.5598188540352185       -0.6499999999999999      0
-6.6358502141191575       -0.5263613434683416      1.9076123141302823
-6.420248240119579        -0.6499999999999999      0
-6.492615240372887        -0.5249719017921606      1.9262724745843567
-5.028940688042478        -0.9962342674903393      0.019310985060739475
-4.8740660859909735       -0.9996935051138569      0.017836518463362813
-4.741173486584835        -1.0084324377284912      0.017101087006049318
-5.648320177928973        -0.8762767975754029      0.01541046852810129
-5.511047384490323        -0.8761407143223581      0.013827263997337991
-5.8588381674475265       -0.75                    0
-5.7193420206035395       -0.75                    0
-5.370735774569478        -0.8756074463100649      0.012421161170419305
-5.230312044331483        -0.8779328817791359      0.011479852614204483
-5.092642698449937        -0.8766773786696701      0.010388642738128217
-4.6095888676231365       -0.9956031001135799      0.015127345032353261
-4.454274039026087        -1.0002802947845257      0.014205273937827943
-2.715776515449937        -2.1345131672180866      0.036133040829024125