% Model:              VLR_3_01V03.mph
% Version:            COMSOL 5.5.0.292
% Date:               Jun 7 2020, 21:12
% Dimension:          2
% Nodes:              1789
% Expressions:        1
% Description:        Electric potential
% Length unit:        cm
% x                       y                        V2 (V)
-0.08199822461358115      -0.08390968988337733     9.966163766879317+0.0030267415081144805i
-0.06241300531509565      -0.07813204699441734     10.000347176207958+0.0038792632363967208i
-0.07813136861957454      -0.06241385453272508     10.00037632360096+0.0030984891878334674i
-0.08998922264103305      -0.043611234888071976    10.000411181191117+0.002164850380847378i
-0.09855014771866395      -0.06564932539168358     9.972343205972164+0.002324298386588703i
-0.061898464789454266     -0.09925373886095169     9.960509309010163+0.0036020094639338004i
-0.043610259754689656     -0.08998969521077675     10.000325182747995+0.004468473573888938i
-0.09740025222662757      -0.022653716388030657    10.000450016649328+0.0011246739891069225i
-0.11084518655060688      -0.04499268241815598     9.980239219788233+0.0015604081420854989i
-0.0391403380257305       -0.11068620576289362     9.955005280029782+0.003987867742530995i
-0.02265369791667273      -0.0974002565227635      10.000311429963595+0.004836910454072801i
-0.01331633138003748      -0.11647488696855035     9.952979370183819+0.00420879282450591i
0                         -0.1                     10.000306598092013+0.0049663361910509225i
-0.1                      0                        10.000492026697078-1.1687213473095239E-7i
-0.12017974117265519      -0.006952392494385852    9.997271590340787+2.3769958698104655E-4i
0.013439236166640906      -0.11710699311261008     9.951343440493867+0.004185788223457141i
0.022653716388030657      -0.09740025222662757     10.00031142672392+0.004837010599739916i
0.03894236059355642       -0.11051378405490728     9.955539442773244+0.003997314088197895i
0.043611234888071976      -0.08998922264103305     10.000325171939195+0.004468738419683674i
0.061997741650123464      -0.09914976006658942     9.960614938553169+0.003600702168464391i
0.06241385453272508       -0.07813136861957454     10.000347162035174+0.003879619419502016i
0.08202319232786502       -0.08336918167454906     9.966952360555211+0.0030266105903227823i
0.07813204699441734       -0.06241300531509565     10.000376305291423+0.0030989478089601097i
-0.09740027579126098      0.02265361507102783      10.000534049704658-0.0011251280846159895i
-0.11770218477042282      0.0176967802900531       10.008276291023407-6.201144675980907E-4i
0.0984535935368357        -0.06388142749282229     9.974320340910515+0.0023028752567334425i
0.08998969521077675       -0.043610259754689656    10.000411160731222+0.002165367234340645i
-0.08998976940816245      0.04361010664818135      10.000572890467216-0.0021653682677105356i
-0.1104315016097454       0.041781585383011306     10.018145640821713-0.0014881118865440926i
-0.0987541246994406       0.06371748721027315      10.02678691643982-0.0022906305219572553i
-0.07813220659018694      0.062412805523773304     10.000607745784919-0.003098941803387227i
-0.08324066344482998      0.08259111068972892      10.034189043734104-0.002982643244903384i
-0.062414122765496065     0.07813115434584073      10.000636884676043-0.0038795337534035363i
-0.04361161765327609      0.08998903714155662      10.000658864398465-0.00446847893726819i
-0.0652781507385115       0.09865884696609295      10.042631464536809-0.003500766572432257i
-0.02265421350800062      0.09740013660326112      10.000672598735811-0.004836557637632451i
-0.044179573319091246     0.11116039376175113      10.050595859579358-0.0038576503165486946i
0.11040386177580243       -0.041528044519538315    9.983032159834474+0.0014819382281391605i
0.0974002565227635        -0.02265369791667273     10.000450004797825+0.0011250712295945732i
0.11734408355700476       -0.01734647613415439     9.992987208057576+6.119868634313799E-4i
0.1                       0                        10.00049202431053+1.1104864609623527E-7i
0.11925844013909861       0.006775392338752018     10.00352010222514-2.353622170052274E-4i
0.09740027152773081       0.022653633402266993     10.000534032292647-0.001124641080528852i
0.08998929695878763       0.043611081537415886     10.000572872235455-0.002164892062008431i
0.1108257300821652        0.04426982298889782      10.020197729024689-0.0015427486384413155i
0.04361064313298144       0.08998950941930808      10.000658864633564-0.004468402966313688i
0.04206847577696436       0.11047041906308609      10.047511275852562-0.0039259683522010124i
0.02265419578313888       0.09740014072586965      10.000672608415146-0.004836677518543621i
0.0781315280452624        0.06241365495876985      10.000607728892215-0.0030985146560570196i
0.09876956408260817       0.06464458281049228      10.027778371562057-0.002303122461350278i
0.0829106265248447        0.08325842480910316      10.034823053207331-0.002994246765178781i
0.06241327189725422       0.0781318340440017       10.000636874177264-0.0038792485902128895i
0.06375002243067655       0.09876625446052761      10.041334436507038-0.0035490461548981747i
0                         0.1                      10.00067742956381-0.004965917441362613i
-0.006280040743469355     0.11994620671643337      10.055600495941592-0.004128425344729119i
0.01836068789230439       0.11748726819842975      10.051990590947616-0.004126240296455606i
-0.0390421837079447       -0.031236323268193672    10.000384475555101+0.002480925890160519i
-0.03123622795269456      -0.03904225996644282     10.000357587533237+0.003101163034051169i
-0.028902516036850862     -0.02799454476993259     10.000395644371006+0.002223376598408673i
-0.022929265813663627     -0.03549534736926449     10.000369816080253+0.0028192161051573644i
-0.021907439957443337     -0.044945122922415245    10.00033725307354+0.0035702381188589473i
-0.011511264375802868     -0.04865686788594568     10.000324464177817+0.0038652524486903627i
-0.013580156694836969     -0.03727148349138352     10.000363697784193+0.0029603753144473873i
-0.00509587741559925      -0.0410670399964869      10.00035062836283+0.003261895639716908i
0                         -0.05                    10.0003198535309+0.003971748596829227i
0.004428180733670958      -0.03972992267247989     10.000355230677096+0.0031557251259605435i
0.011510879652121941      -0.04865695890244647     10.000324460091958+0.0038653537460629165i
-0.03629921311157199      -0.022316607631850047    10.000415196189936+0.0017723283475973516i
-0.04494507062072065      -0.02190754725884285     10.000416605728404+0.0017397831751149691i
0.013350891724150916      -0.03953296223484311     10.00035590635961+0.0031401203324923086i
0.02190754725884285       -0.04494507062072065     10.000337245653098+0.0035704166320178186i
-0.038365431060655174     -0.013213778691250653    10.000446536603748+0.0010493423860998372i
-0.04865695890244647      -0.011510879652121941    10.0004524031156+9.140038072300781E-4i
-0.0418406543304712       -0.004639395717597255    10.000476057104851+3.683407447841212E-4i
-0.05                     0                        10.000492043989809-3.608124990151754E-7i
-0.04008614961270931      0.0042958887487078955    10.000506827362779-3.4142475692575314E-4i
-0.04865686788594568      0.011511264375802868     10.00053165247272-9.14217086267073E-4i
-0.0394335574195311       0.013464316254026576     10.000538392380658-0.0010695870967214055i
-0.044945122922415245     0.021907439957443337     10.000567454416503-0.001740044004182982i
-0.03391175625955506      0.020395039322016        10.00056225271247-0.0016200273405094937i
-0.03904225996644282      0.03123622795269456      10.000599586312527-0.0024811994200787187i
0.031236323268193672      -0.0390421837079447      10.000357576660738+0.0031014160222810317i
0.020625534682305328      -0.034741747210421434    10.000372402857174+0.0027595506163958453i
0.03904225996644282       -0.03123622795269456     10.000384463856276+0.0024812148431337896i
0.028239167673035487      -0.02852193240538412     10.000393818387652+0.002265506805465375i
0.03426123160606659       -0.02131974764629513     10.000418615522655+0.0016934585665103398i
0.044945122922415245      -0.021907439957443337    10.000416596119443+0.0017400534626610537i
0.03973752794590771       -0.014605324412211618    10.00044173167989+0.0011601880621105658i
0.04865686788594568       -0.011511264375802868    10.000452400124184+9.141922790555172E-4i
0.04050245573207107       -0.006124547014408487    10.00047092835928+4.8665310350282516E-4i
0.05                      0                        10.00049200752528+3.5265766139049947E-7i
0.04144622117221289       0.0030456789628740205    10.000502506475192-2.4175735629686145E-4i
0.04865695890244647       0.011510879652121941     10.000531647189842-9.139937492087024E-4i
0.04494507062072065       0.02190754725884285      10.000567444931075-0.001739776096026641i
0.037683889306442536      0.013172049117694321     10.000537372297183-0.0010460538742243823i
0.03566386183408023       0.021394117786090155     10.00056568004205-0.0016990828692373262i
0.0390421837079447        0.031236323268193672     10.000599574735856-0.0024809116347559823i
-0.029069098265885444     0.028827243897026348     10.00059128468759-0.0022897665267439327i
-0.031236323268193672     0.0390421837079447       10.000626475536794-0.003101429900950374i
-0.02190754725884285      0.04494507062072065      10.00064680435058-0.003570395160237791i
-0.02077667870346191      0.03319112914976847      10.000606310255707-0.0026363996334619892i
-0.013310283199382376     0.039220003860721386     10.000627068523485-0.0031152809421379013i
-0.011510879652121941     0.04865695890244647      10.00065960213406-0.003865521800045249i
0.03123622795269456       0.03904225996644282      10.000626462480884-0.00310114450981182i
0.02879225497302286       0.027235305035840176     10.00058579306726-0.00216308023132228i
0                         0.05                     10.000664215237467-0.003972015359545035i
-0.0039188096053217785    0.03910340284951266      10.000626666981942-0.00310601804475443i
0.005505293154523942      0.041333985821389925     10.000634343295765-0.003283120456773418i
0.011511264375802868      0.04865686788594568      10.000659577887852-0.0038651064596425914i
0.023068305249670143      0.03578802606938222      10.000615242274579-0.0028424555369132008i
0.021907439957443337      0.044945122922415245     10.000646793692532-0.003570169246164486i
0.014015779799636105      0.03715159899156458      10.000619939931894-0.0029508414939995054i
-7.6193098986299415       -4.602312957647239       8.624733774803246+2.7503652751463417E-5i
-8                        -4.411764705882353       8.64746575152088+2.7098599606524175E-5i
-8                        -5                       8.623768195093877+2.7519754866454682E-5i
-7.415132450478492        -5                       8.60020175544277+2.7936093372494783E-5i
-7.563892997358224        -4.1157729355256665      8.664556743254963+2.6799407841254782E-5i
-8                        -3.823529411764707       8.717669156625819+2.5835712832176135E-5i
-6.83026490095698         -5                       8.52859839062745+2.9184269737680363E-5i
-7.117524045312988        -4.484027146828173       8.588910216747216+2.814392801924313E-5i
-7.543182587104376        -3.53547179744445        8.755547753879434+2.51622855852526E-5i
-8                        -3.2352941176470598      8.831791943628236+2.3736550976278234E-5i
-6.506741268751096        -4.530914492872718       8.484432639172951+2.9966906420074693E-5i
-6.245397351435468        -5                       8.406290167832044+3.125782280692387E-5i
-7.103341082708087        -3.8375323108548067      8.663859432291163+2.6851942972649042E-5i
-6.686975845232392        -4.099155498426091       8.564085060056073+2.863474062042078E-5i
-5.934787195093565        -4.526284370806591       8.338364857920226+3.243182761885052E-5i
-5.660529801913956        -5                       8.228576656165304+3.4130799358154464E-5i
-7.531037186767155        -2.9481282857753035      8.890376843748045+2.2667727954874035E-5i
-8                        -2.647058823529412       8.985675847255406+2.082184420137277E-5i
-7.0608211554468445       -3.2525804158841396      8.776476603214482+2.486158512622237E-5i
-6.201763795641475        -4.0548427640252305      8.467017145856138+3.0388143202582338E-5i
-6.530457715171306        -3.565766339909901       8.627740546941146+2.764618891858768E-5i
-7.529959430324272        -2.359326590753025       9.063821809240663+1.9346692537683278E-5i
-8                        -2.0588235294117663      9.173823812752588+1.714154113321245E-5i
-5.354751851044673        -4.521606836880397       8.13368627774529+3.570422637616852E-5i
-5.075662252392444        -5                       7.988463928690622+3.773177966603294E-5i
-5.63583937857464         -4.0424000293384745      8.302714485518122+3.326366944358813E-5i
-7.061029408240517        -2.662583132613442       8.93688349239826+2.1902881317720542E-5i
-6.595878952689641        -2.9660006287069374      8.789121941235711+2.4830516167748918E-5i
-5.913656333151081        -3.549837244532724       8.489642684999938+3.03237701602312E-5i
-6.159426409878176        -3.138190310264668       8.658179773032563+2.7416378809611923E-5i
-0.12258152117288645      -0.0670870558769668      9.95166853554357+0.001705352881395359i
-0.10619906567824018      -0.08935022011442621     9.93637120307473+0.0023027820355797615i
-0.08473677286178972      -0.10864942894231579     9.923703226685097+0.002841246014622418i
-4.768221365035446        -4.521201625107507       7.860252977099132+3.971582892006035E-5i
-4.490794702870932        -5                       7.676105455131981+4.189993772970487E-5i
-7.528379574012256        -1.769707107353225       9.269099739851477+1.5276528950288935E-5i
-8                        -1.4705882352941193      9.389662672598883+1.278791164296807E-5i
-7.059308933730595        -2.0696647622326365      9.134206746876357+1.8099175911842145E-5i
-5.05192390995024         -4.030516123487867       8.075610625123119+3.705901170904083E-5i
-5.349990643418712        -3.5379702622116276      8.313544433033842+3.369279692977484E-5i
-6.589169542108436        -2.3798012187749102      8.97545463756886+2.1418327483586937E-5i
-6.130905489281609        -2.6442256486790017      8.80864431402629+2.488026850152457E-5i
-5.648659830689584        -2.9957605923570636      8.57481756396386+2.9450091130680646E-5i
-7.598918179143803        4.6199131948288885       11.378769580836925-2.7531360210708196E-5i
-8                        5                        11.377700432069695-2.7511385222486473E-5i
-8                        4.411764705882343        11.35399875662142-2.7090260836565017E-5i
-7.415132450478488        5                        11.401271460483228-2.7927672615158142E-5i
-7.525492212108803        -1.1787629452157085      9.499396862416967+1.0566066417837869E-5i
-8                        -0.8823529411764723      9.625816774132355+7.902946446240758E-6i
-7.524479780085247        -0.5888732494849623      9.746056268252088+5.401897172814737E-6i
-8                        -0.29411764705882604     9.874366918634985+2.6761057100567557E-6i
-7.524726670336666        -6.486081406446853E-5    10.000696699902251+4.205405398480516E-9i
-8                        0.2941176470588207       10.127083136652288-2.668843860195074E-6i
-0.12198351046998848      -0.027876281553387772    9.98545895495212+8.835251359381074E-4i
-0.13595425673392894      -0.04348737242186679     9.967480825952634+0.00105934321827714i
-0.15223461308360361      -0.0656174472895635      9.938300910292034+0.0011850383241570966i
-0.05947159597865794      -0.12415124887924234     9.912881558031158+0.0032528104552226544i
-0.13551677507993576      -0.09259681347524214     9.913684887900574+0.0017059132974550381i
-0.11309685764653553      -0.11728346424727554     9.89142981029343+0.0021928351546878122i
-0.08575299643307253      -0.13794752541984034     9.872613311123219+0.0025953498516224677i
-4.45123562016252         -4.030463138577418       7.769284109845418+4.1784437066655625E-5i
-4.185185671113206        -4.529818081373783       7.510157467705157+4.41956692816597E-5i
-3.905927153349421        -5                       7.2779686659363705+4.631733728916553E-5i
-7.052539616656955        -1.4771675424179618      9.360448857336598+1.3550934504706842E-5i
-6.58028837646589         -1.7781167615359403      9.202058344788695+1.7011568697146317E-5i
-4.75150460146545         -3.52945484881178        8.067415433597366+3.8294080126718536E-5i
-5.056794559875143        -3.0619590349868746      8.359059958983154+3.399308794755877E-5i
-6.109606036118445        -2.072753757311896       9.021275781532909+2.0994308104795785E-5i
-5.653825388473091        -2.3701139711349173      8.810986947839835+2.5559576971441978E-5i
-5.242517106804289        -2.6277121544384943      8.594575479307197+3.011478410461175E-5i
-7.527653136603608        3.506450641651008        11.241061285066875-2.5066965896221943E-5i
-8                        3.8235294117646963       11.283799234405032-2.582748400209353E-5i
-8                        3.235294117647051        11.169668264737725-2.3728430824916365E-5i
-7.473601104832774        4.1128179552828295       11.342293883212713-2.6890439028595496E-5i
-7.105857340407747        4.574983312979272        11.420094240784238-2.8264787039230936E-5i
-6.830264900956978        5                        11.472868813242185-2.9175736619429734E-5i
-7.524264626991542        0.5891192465593003       10.255501930482927-5.396931738264156E-6i
-8                        0.8823529411764666       10.375634699969554-7.895606755016564E-6i
-7.518720975131546        2.943836515635612        11.110577918218864-2.2651870279987066E-5i
-8                        2.647058823529404        11.015782868381862-2.0813941721288578E-5i
-7.521878637785914        1.1794011744696578       10.502396970088874-1.0566297995371773E-5i
-8                        1.4705882352941124       10.611791563493364-1.2780432182478527E-5i
-7.5169573143313535       1.7727614558287104       10.733871532829701-1.5301562374192067E-5i
-8                        2.0588235294117583       10.827633922115519-1.7133882052346053E-5i
-7.514490961744355        2.3704423378283486       10.94190018776905-1.9424570830596383E-5i
-7.048874217329922        -0.8847109647559301      9.608472880349858+8.385677593841816E-6i
-7.047726376210221        -0.29326108144064833     9.869252089628873+2.827905656759676E-6i
-7.047256795871632        0.2979028324752789       10.13427722204942-2.8654524758624464E-6i
-0.17070406091841778      -0.0927432828450293      9.898954049092714+0.001219174565167286i
-0.14339522606850333      -0.01793165710719194     9.986561960784144+4.258254654292513E-4i
-0.1647142128678937       -0.0374282635321702      9.964292311247165+6.510207162036236E-4i
-0.18365215409351116      -0.061778784667113076    9.933022106381243+8.164506477697321E-4i
-0.054229631811103574     -0.1537451803227145      9.857257120940202+0.0028714755200624407i
-0.031060600213494143     -0.13462350905658454     9.90469398717935+0.003501944565087464i
-2.569651810301457E-6     -0.13873949678677638     9.900850259636465+0.0035791094807362347i
-0.14837562321606         -0.12355735491147662     9.865718315651806+0.001644349243915221i
-0.11868809476057424      -0.15072876910694655     9.836726767304453+0.0020320387886565857i
-0.0842950255397742       -0.1731270610205473      9.811741278162133+0.0023170006196190323i
-0.45630539175687695      -4.0751805991841685      1.1995739476839495+1.8004351374859085E-5i
-0.5270663060004295       -4.14519485169547        1.6750329700244933+2.4333999894366302E-5i
-0.41503998738299414      -4.158422118014789       1.1506091192810965+1.6485540513437602E-5i
-0.533708855855684        -4.033217899655975       1.6674245195849602+2.5557325961601138E-5i
-0.615000320039455        -4.075390990793236       2.0655718942502674+3.076828090140401E-5i
-1.8008158869880955       -5                       4.7846863898750565+5.159226153128656E-5i
-1.4611124987524509       -5                       4.166332932740843+4.795803302006109E-5i
-1.6310983244353605       -4.6741875170501075      4.515343238590654+5.090888896155168E-5i
-3.63041345830237         -4.591890200947318       7.083467366613079+4.849501801196653E-5i
-3.3524975931192533       -5                       6.805671957431613+5.021713376302583E-5i
-3.152370134345016        -4.630711721388986       6.635330223674578+5.172652340714471E-5i
-2.8860508870577064       -5                       6.319944284063719+5.271880116885496E-5i
-2.5125762498854787       -5                       5.86205327147547+5.3738379225812495E-5i
-2.721220803295733        -4.6590707304820995      6.153534830893637+5.37523012589407E-5i
-2.154443670997729        -5                       5.356078701953822+5.346862527916116E-5i
-2.3319306438455527       -4.6537242382950685      5.648266117367434+5.445203522552788E-5i
-1.977705886372803        -4.63397402413517        5.119912197576117+5.372379276463399E-5i
-4.09447583788177         -3.4552288589969864      7.743662305026115+4.4497070744206836E-5i
-3.864559365820385        -4.032956749768358       7.387855208901327+4.6976809030203574E-5i
-1.2955157477680377       -4.704101430933417       3.8603477242311244+4.619665377554101E-5i
-0.6751734966729607       -4.222491165230216       2.3177005442412586+3.2570068017143805E-5i
-0.5098192228106162       -4.259384691360554       1.754279576609526+2.4493846695170546E-5i
-0.374625251426417        -4.260860263462418       1.2997467378049414+1.797776592686511E-5i
-0.30287917302765577      -4.159005285217065       0.7112034971155867+9.941247252299396E-6i
-1.1276787184086832       -5                       3.5048948031564215+4.2560693176008176E-5i
-6.572939137190289        -1.1820818588524213      9.454219015854571+1.18312376121618E-5i
-6.094676023880215        -1.4805299027996117      9.275897790750362+1.5937071500263057E-5i
-4.510953463600385        -3.0451206384424965      8.138250798284547+3.89521921270967E-5i
-4.780003619694949        -2.590102972620918       8.457493034728754+3.384585852276986E-5i
-5.606418060948815        -1.7840168388331894      9.062253201034238+2.0968385060021727E-5i
-5.088862357967583        -2.0991823048225196      8.79416643903655+2.7319328772186607E-5i
-4.077177365098844        -2.908806347471631       7.9897534649176745+4.3422457655497E-5i
-3.6576998029321546       -3.0575134980893597      7.666618847945707+4.945887527525823E-5i
-7.072535072336218        3.2419852456786358       11.221189570893317-2.478171198603838E-5i
-7.1013575981130215       3.681851869686845        11.310930933921892-2.6375956410098404E-5i
-6.854804442914906        4.080726926128329        11.407098384159228-2.8080977129070655E-5i
-6.55246407355926         4.529601418745902        11.50745975728397-2.9793164251559203E-5i
-6.245397351435468        5                        11.595187874629188-3.1248990750640636E-5i
-7.044616525548189        0.8896248892365707       10.395249980680129-8.427557138990817E-6i
-6.982827071406714        2.7015837438557573       11.084191184344963-2.2292358600817216E-5i
-7.038767536615246        1.4813943836108392       10.64349541577573-1.3599736977383001E-5i
-7.025581648850636        2.0774449540074063       10.872688098224216-1.8212297713805615E-5i
-6.6903936696794855       3.0765921276606223       11.228601655586921-2.5058761073206013E-5i
-6.519332424564291        2.776272525000781        11.16763607174368-2.40726791422441E-5i
-6.570204799628225        -0.5882490427810522      9.724172708968867+6.052547413390011E-6i
-6.569804308398622        0.004756762547158327     10.002971623142747-4.5879346252005114E-8i
-6.5691781889954175       0.5991766037558587       10.282392220083336-6.156981351327414E-6i
-0.14282569126497405      0.010429202661038854     10.008470082885887-2.5242544281926105E-4i
-0.19079868772981745      -0.1264712033857364      9.848109018052229+0.0011969051429131154i
-0.20792822919834036      -0.08773816219694257     9.895574705981742+8.543677676546873E-4i
-0.21214997107337533      -0.055633253264435155    9.934941815231111+5.735529679460292E-4i
-0.17529898607749525      -0.002350379298572804    9.998140501162451+3.778777271871015E-5i
-0.19678130397828147      -0.0312301899858215      9.965732677583214+3.901824326742203E-4i
-0.045301622677963484     -0.18883832853017327     9.793229469929033+0.002484959552704361i
-0.01902544124194948      -0.1632007311738381      9.846985323267978+0.003001034098077156i
0.030129006610241316      -0.13466208472509042     9.904920783022588+0.0035116155584386417i
0.01707562601607631       -0.1629320073957518      9.847760320263484+0.0030136216344650306i
0.05881505344865496       -0.12431981102791463     9.91294246609885+0.00326358205571218i
0.08446211483222138       -0.10858879198753779     9.92400917011623+0.0028489118737282295i
0.10629134597472134       -0.08827832561322542     9.937745197508514+0.002295879987165104i
-0.16086040264202767      -0.1622873120645412      9.804927694621467+0.0015415029095524177i
-0.12328129363096668      -0.19188122795949814     9.769241462785196+0.0018295732293488042i
-0.21186532423526483      -0.17125457966911514     9.779896378854351+0.0011436825923704106i
-0.0812634183277134       -0.2146929925494803      9.740743432724171+0.0020207243052583618i
-0.73769103616502         -4.048741333811632       2.581692190876431+3.821676196674478E-5i
-0.35                     -4.05                    0
-0.4450189586606242       -3.9943012055862295      1.1052938545685655+1.7544259024498516E-5i
-0.5184823720358057       -3.9534590851535394      1.6670945170177909+2.6787869024296737E-5i
-0.45712571741511376      -3.907410732412326       1.405399274803073+2.3625033739371263E-5i
-0.61643576682674         -3.960398765613695       2.168149734982983+3.4012279029364995E-5i
-0.5461223485425475       -3.8753469426358036      2.0021925523776214+3.3294281771867046E-5i
-0.24752279932672144      -4.05                    0
-1.4480843379456672       -4.38727950290664        4.2496457369282234+5.115511303443359E-5i
-1.1214420341070848       -4.436493213070532       3.533198985201023+4.482310015678091E-5i
-1.7749675007792416       -4.316826854229295       4.887364833237034+5.521998744337009E-5i
-3.304071001429234        -4.133939997395509       6.899365894166533+5.179390521190656E-5i
-2.861645058549498        -4.255250643776914       6.415594808321512+5.4601927919619026E-5i
-2.5290483209870502       -4.354879280687255       5.989459382280335+5.564949847839674E-5i
-2.1718198503223465       -4.229037777922392       5.554290479135953+5.7286140606061665E-5i
-0.9336755922078591       -4.175880710775763       3.141228913679773+4.3320447380005775E-5i
-1.2572478603749597       -4.136540630140342       3.9765846694823233+5.2018462077832725E-5i
-3.408640072508437        -3.5240389941564136      7.240227303573791+5.2385313936292334E-5i
-3.181610246235489        -2.9674069987312217      7.400645944263659+5.7068469380731775E-5i
-0.9584855375312106       -4.730096346168752       3.1525739281880014+3.953615096224442E-5i
-0.8161914114182804       -4.452588775050138       2.7923862590422384+3.677751978497298E-5i
-0.5882358570482962       -4.411590414374722       2.172716353981258+2.9283218439416953E-5i
-0.43896249498013806      -4.356034898064028       1.6962804797997877+2.3112585150538065E-5i
-0.12707137154069553      -4.05                    0
-0.1828887685879508       -4.173508326777288       0.5695440913056106+7.770636422309365E-6i
-0.2561041674415402       -4.265793432508855       1.028434125187615+1.4030764129294268E-5i
-0.32868396814620443      -4.36683305851103        1.4557028226198678+1.9708797237731244E-5i
-0.06354069239231906      -4.180925773558476       0.5267322865076222+7.114891674922791E-6i
-5.551115123125783E-17    -4.05                    0
0.06069163041101026       -4.175452986716697       0.5050042688429134+6.821757050480973E-6i
-0.7942449380649155       -5                       2.834484151855646+3.5840623351033066E-5i
0.12707137154069537       -4.05                    0
0.18030047036727595       -4.163407553631501       0.5239289735839442+7.149977595074839E-6i
-6.090895162819989        -0.8839214454970138      9.558257410448816+9.918059735050338E-6i
-5.6079093697378655       -1.1822887547672103      9.362146083798878+1.4730732335286412E-5i
-4.3264295154931105       -2.576687187331693       8.285186631689866+3.868874325531561E-5i
-4.518514575388825        -2.128444952809821       8.60835444010817+3.3013680189621265E-5i
-5.11867606020288         -1.4784986437480108      9.128832740692546+2.0750550728703784E-5i
-4.694982223508973        -1.716059635578845       8.900183592765945+2.6919156519256307E-5i
-3.8317496287273927       -2.546006105156637       8.073482027415103+4.5361102854839874E-5i
-3.3631806294437987       -2.560907735670408       7.80933752368582+5.3682345974971164E-5i
-6.614270758500303        3.541623183304439        11.35344327838766-2.725758468339861E-5i
-6.28127578207634         4.0434838167706895       11.513441177160837-3.000976790499502E-5i
-5.9689380250675335       4.521435525444697        11.652486257548114-3.2248386333788284E-5i
-5.660529801913956        5                        11.772908693676653-3.4121540058572286E-5i
-6.565257719183071        1.191409467516801        10.551894868162435-1.1926515508547465E-5i
-6.551621885415032        2.3505386887972786       11.020681333979418-2.1336534750404832E-5i