% Model:              VLR_3_01V03.mph
% Version:            COMSOL 5.5.0.292
% Date:               Jun 7 2020, 21:13
% Dimension:          2
% Nodes:              3454
% Expressions:        1
% Description:        Electric potential
% Length unit:        cm
% x                       y                        V2 (V)
-1.8270913727439153       -0.8134722586817302      9.471339781168698+0.5463894431785451i
-1.854368097503255        -0.7492122255824168      9.51371174463067+0.5015723087659506i
-1.8968848589689582       -0.8074555185168641      9.462692437078454+0.5101489364148123i
-1.7975886712019693       -0.8767411072639045      9.429439458086081+0.5909742379318064i
-1.8684695492449017       -0.8726024158591845      9.417713468469836+0.552712097616712i
-1.838730339094434        -0.9361435550861009      9.373286639884968+0.5942546857070722i
-1.7658958194126329       -0.9389419337642696      9.388053445944442+0.6352963852550427i
-1.7657628254268891       -1.0606897429665312      9.286428858317977+0.6805833203362103i
-1.6960970145702927       -1.059837212578299       9.307000220271988+0.7230161814345794i
-1.7320516530906418       -0.9999985355119151      9.347225680071352+0.6793223078046416i
-1.8045903674521389       -0.9987305515379505      9.329556083313614+0.6367162735641476i
-1.6180348804555982       -1.1755692772563593      9.228539843829513+0.8092446530521155i
-1.6580759770092384       -1.1183845735992872      9.26742281468586+0.7663380309409539i
-1.6921347899351493       -1.1851160871375896      9.194467516269576+0.762075872415315i
-1.7301808677985302       -1.1244420664879673      9.239531679175288+0.7218236776589428i
-1.576022722326162        -1.2313213953763789      9.19039883378558+0.8516888383870594i
-1.6023395791543555       -1.2970767177316982      9.11312865492478+0.8449523370532922i
-1.5320900393664239       -1.2855738451268326      9.153047550606592+0.8936201433923513i
-1.6492436006360707       -1.24302435214653        9.151924102087603+0.8032418884471076i
-1.5538404483538009       -1.350969097963047       9.073603005259748+0.8863511371561276i
-1.4862908391530114       -1.3382598930887217      9.116535778360701+0.9349826819987729i
-1.4386809161800385       -1.3893153786737424      9.080913855258292+0.9757165243450587i
-1.506389899430641        -1.407187029698047       9.029057211973582+0.9253997825371636i
-1.3893182052767965       -1.4386781865610048      9.046233069057022+1.0157570160957623i
-1.4588486124778561       -1.4596020417357074      8.986536079232762+0.9621215649687141i
-1.3382628154045375       -1.4862882078875281      9.01254570744117+1.0550345318679275i
-1.4072576929348317       -1.5105024588752014      8.945177784060322+0.9996462360443142i
-1.2855768616442023       -1.5320875082073617      8.97990493199538+1.0934744051465861i
-1.3538200910863012       -1.5601768547679125      8.903576000132873+1.036262149718146i
-1.231324651550908        -1.576020178323563       8.94836486789645+1.1309966480814224i
-1.2983039079409304       -1.6071529460558318      8.863867763885722+1.0722482391711088i
-1.8793856107560087       -0.6840392723252542      9.556513294573868+0.45655075738205936i
-1.9237957559723091       -0.7416522417207927      9.507592961217021+0.4671244032733413i
-1.9021133134226649       -0.6180331244361026      9.599702860359926+0.4113506467278092i
-1.9507352215737552       -0.6754993316089145      9.552069076286626+0.4232847936124163i
-1.922523615986301        -0.5512739300701226      9.643239909235085+0.36599536218687917i
-1.9741310277773154       -0.6074037321331894      9.597848002278125+0.37929488683515983i
-1.9405916361373317       -0.48384305487816526     9.687084303850376+0.32050666088005103i
-1.9942913560812872       -0.5377149347287834      9.644567310576024+0.33501744044284626i
-1.956295342776008        -0.415822716831225       9.731196415159571+0.27490470829515024i
-2.0106452197126727       -0.46697262842868187     9.691865773906299+0.2907377694186277i
-1.969615612575539        -0.34729575105187127     9.775537140012812+0.22920820995014876i
-2.0239141270628176       -0.39489183737775907     9.739844230570876+0.24591179076022227i
-1.1755723723518754       -1.6180326317361413      8.917980336225767+1.1675161297551533i
-1.240613409237575        -1.6512897835487867      8.826561866692863+1.107810047258812i
-1.118387843533969        -1.6580737714092937      8.888806649463394+1.2029427280056144i
-1.1815135538725083       -1.6927387732013295      8.791278780281543+1.1424267424894674i
-0.803901036698673        -1.8955269930196903      8.606758228565136+1.3216729373458127i
-0.7492157567102231       -1.8543666708332327      8.742319156950751+1.3869246534139652i
-0.8134758632618257       -1.8270897678796263      8.763057001727477+1.3601986799531367i
-0.8767447256940895       -1.797586906374097       8.785338505370264+1.331749917115628i
-0.8716632976796667       -1.8673060035395563      8.63240927866971+1.2939410087832075i
-0.9389453881774121       -1.7658939826672406      8.809109598187895+1.3016908610282192i
-0.9364025866353307       -1.836686677107928       8.661228805204585+1.2660570415936532i
-1.0598406742514284       -1.6960948514756706      8.860899591942973+1.2371813212487863i
-1.1214695092669533       -1.731239136582077       8.758450460848287+1.1759049404553492i
-1.0000021710325444       -1.732049554120839       8.83431520715222+1.2701320845830366i
-0.9988486357881768       -1.803026312328958       8.693944841179883+1.2379768319716493i
-1.0604035257450843       -1.7675045152873343      8.727083166531868+1.20812828582547i
-0.20905603470402634      -1.989043884471589       8.637773784136556+1.5256873626184106i
-0.2783465658757216       -1.9805360863324843      8.644494200214167+1.5165477769632159i
-0.24839240444064387      -2.0466798338112575      8.43540065619839+1.454934706182943i
-0.6840427593340318       -1.8793843415870752      8.723177675705397+1.4118145121876413i
-0.7358454030556705       -1.9247712621743476      8.574086914707818+1.344825533453358i
-0.6180364148735531       -1.9021122442932346      8.705683349316871+1.4347555744219098i
-0.6681944443541917       -1.9513653914962266      8.542608633469946+1.3652568005541204i
-0.5512772462317256       -1.9225226650906264      8.689884526856048+1.4556374307628095i
-0.5994325277438942       -1.9729707228409314      8.51998194436838+1.3858769332250025i
-0.347298227272644        -1.9696151759501856      8.653095981191127+1.5048964589040488i
-0.3202077640738143       -2.0364436927272362      8.448194919302528+1.4457347072062818i
-0.41582629427833645      -1.9562945823640023      8.663551171753705+1.490804192439624i
-0.3920593742459842       -2.024229313901648       8.461899310761607+1.4335259658037443i
-0.4838468528711764       -1.9405906891889022      8.6758266016697+1.4743536760563798i
-0.46171066893908763      -2.009564757378706       8.478840290556166+1.4197201589761794i
-0.5305778808941747       -1.992137660000152       8.499368232468195+1.4042483189195616i
-1.9805362028419167       -0.27834573686787656     9.820067699009476+0.18343476839471903i
-2.038123445856784        -0.3231451569422349      9.787141996116686+0.20064800199601907i
-1.9890438248327997       -0.2090566021308754      9.8647497529993+0.13760089713969278i
-2.047333381723548        -0.25294709719484615     9.833415684419556+0.1569662067608709i
-1.9951281187484384       -0.1395126868041629      9.909545232730304+0.09172233247091056i
-2.0527971585220888       -0.18250779468856448     9.879763424906796+0.1133443527509519i
-2.055510685955301        -0.10775710369677365     9.928815659962735+0.06699830225242882i
-1.9987816601289903       -0.06979881898713512     9.954416133260388+0.045814369512418344i
-2                        0                        9.999325437147503-1.0891954657915137E-4i
-2.0609503665501987       -0.03532720649297435     9.976197879628502+0.021825920044612215i
-1.9987816782866166       0.06979829901750112      10.04423437463826-0.04603184863191893i
-2.062255206028271        0.03607510490833479      10.022955324752116-0.022478561126762175i
-1.9951281897439634       0.13951167151523933      10.089104860743692-0.09193943215868079i
-2.059177115824014        0.10717646336974788      10.069527848362101-0.06662592711251579i
-1.989043884471589        0.20905603470402634      10.133900468453685-0.13781820208878315i
-2.0540216546597705       0.1774723430639696       10.115612733842228-0.1103439448879835i
-1.9805360863324843       0.2783465658757216       10.178583201450627-0.18365287353150495i
-2.0473440157378167       0.24819105460711657      10.162085816657422-0.1543004883811272i
-1.8543666708332327       0.7492157567102231       10.484937597195662-0.501790355782453i
-1.8270897678796263       0.8134758632618257       10.527308882179684-0.5466071116683571i
-1.8992794724261728       0.8055669104085879       10.534941856264508-0.5083982743645742i
-1.8793843415870752       0.6840427593340318       10.442136680815409-0.45676915802730655i
-1.9538766265359424       0.6739504147195213       10.445891040779086-0.4215051293626984i
-1.9021122442932346       0.6180364148735531       10.39894758675227-0.4115692556057857i
-1.9284455155662314       0.741161018294935        10.491415813740259-0.46514205986557317i
-1.9753020024499035       0.6045140719533442       10.398896489654405-0.3775700046352127i
-1.9225226650906264       0.5512772462317256       10.355411091024578-0.36621429067987926i
-1.9696151759501856       0.347298227272644        10.223114542606092-0.22942725352664547i
-2.038565327939921        0.31910522268817615      10.208836694081912-0.1983756283190714i
-1.9562945823640023       0.41582629427833645      10.267455637181147-0.27512429841087566i
-2.024487860481131        0.3893598718528136       10.255114898376533-0.242763782014721i
-1.9405906891889022       0.4838468528711764       10.311567482583241-0.32072617593786457i
-2.007819137537425        0.46166306202826957      10.30290670727503-0.2886839000809556i
-1.9919782415631409       0.5336201637105565       10.350999555704691-0.3336841887528059i
-0.13951167151523933      -1.9951281897439634      8.632956945292195+1.532258194335373i
-0.1771390409065029       -2.0538149722584653      8.427254726861271+1.4622151316218392i
-0.06979829901750112      -1.9987816782866166      8.630059768496714+1.5362184997137962i
-0.10646209602504836      -2.059539453912678       8.418394893560697+1.465943992340726i
0                         -2                       8.629091150467762+1.5375438815533464i
-0.035103194808098565     -2.0623753195893224      8.414044733284534+1.4678633039108708i
0.06979881898713512       -1.9987816601289903      8.6300567283067+1.5362226553042955i
0.03637159926869011       -2.0608052511375137      8.419332443723095+1.4695083889365288i
0.10809367751399274       -2.0559128413425474      8.430465825367166+1.4696534389035145i
0.1395126868041629        -1.9951281187484384      8.632950901341648+1.5322664435739115i
0.2090566021308754        -1.9890438248327997      8.637764711458988+1.5256997078274719i
0.25083587599534446       -2.0483328128729377      8.429341088703033+1.452656471290096i
0.27834573686787656       -1.9805362028419167      8.644481996311162+1.5165643195374274i
0.17949720443063702       -2.05339343981245        8.42821684130797+1.4622580701986516i
0.32219822627770994       -2.0394800778485886      8.43780338839882+1.4421037570956337i
0.34729575105187127       -1.969615612575539       8.65308056437781+1.5049172663686716i
0.39335314841982855       -2.0276084479039898      8.450851660934786+1.4298082191769232i
0.415822716831225         -1.956295342776008       8.663532575954399+1.490829169144444i
0.46398855819921253       -2.0126378037527535      8.468565571044538+1.4159309913500218i
0.48384305487816526       -1.9405916361373317      8.67580498315673+1.474382555326802i
0.5338002665713161        -1.9936827925582596      8.493318622031152+1.4013669801438091i
0.5512739300701226        -1.922523615986301       8.68986008829822+1.455669883548679i
1.059837212578299         -1.6960970145702927      8.860854210521072+1.237238359994596i
0.9999985355119151        -1.7320516530906418      8.83427210469109+1.2701866473153915i
1.0629423670457063        -1.7674305417563738      8.725675992628526+1.2063115710776744i
0.6180331244361026        -1.9021133134226649      8.705656064342302+1.4347915802499898i
0.603926932652814         -1.9720863958863324      8.52010566732091+1.3842543442539854i
0.6840392723252542        -1.8793856107560087      8.723147550457558+1.4118540064663831i
0.6738511321613488        -1.951301895022179       8.539673265109817+1.3620817465166317i
0.7492122255824168        -1.854368097503255       8.742286293995392+1.386967447216325i
0.7420210678914594        -1.927472156282746       8.563709373288537+1.3391100503131301i
0.9389419337642696        -1.7658958194126329      8.80906900485306+1.3017426174221391i
1.0012501679416137        -1.8043339473904214      8.689821872385581+1.235651078432771i
0.8767411072639045        -1.7975886712019693      8.78530036161726+1.3317988961105978i
0.9387925961566466        -1.8386088952399318      8.655635513626331+1.2633779739543582i
0.8134722586817302        -1.8270913727439153      8.76302145307207+1.3602446490940683i
0.874658631982468         -1.87037721656252        8.623616518952149+1.2901006158230721i
0.8090597146689837        -1.9002396289060122      8.592388016818177+1.3152337813144699i
-1.797586906374097        0.8767447256940895       10.569208422235162-0.5911914395566839i
-1.8671864481822569       0.8693850915045787       10.578171437222009-0.5521655421770334i
-1.7658939826672406       0.9389453881774121       10.610593467292508-0.6355129452651801i
-1.8376690011825587       0.9360451602881051       10.62505542697462-0.5949846483182276i
-1.732049554120839        1.0000021710325444       10.651420431010145-0.6795384198445132i
-1.80651341692114         1.000478649597597        10.67101518415914-0.6364975953143405i
-1.6960948514756706       1.0598406742514284       10.691644785999456-0.7232315290853265i
-1.7715217865140969       1.0631894340639898       10.715904442704456-0.6782343682855093i
1.1183845735992872        -1.6580759770092384      8.888759085924564+1.203002086525135i
1.1235519732341643        -1.7287248834237303      8.761694362557973+1.1752533737295774i
1.1755692772563593        -1.6180348804555982      8.917930669177595+1.167577675187313i
1.1826837740537655        -1.688762741745858       8.79725640536108+1.1427253707525347i
1.2410247463643813        -1.6479511714509527      8.83156031066523+1.1083044848284247i
1.2313213953763789        -1.576022722326162       8.948312996317153+1.1310604603648449i
1.2986219670247061        -1.605678795519198       8.865833240230742+1.0723081654175293i
1.2855738451268326        -1.5320900393664239      8.979851164531983+1.093540075809155i
-1.6580737714092937       1.118387843533969        10.731221004972573-0.7665525326297485i
-1.7332729650284489       1.1244674345979522       10.760022459570953-0.7201376297177612i
-1.6180326317361413       1.1755723723518754       10.770102729672265-0.809458250512375i
-1.6916889512575732       1.1835290444808584       10.8025331242805-0.7621780393883375i
-1.576020178323563        1.231324651550908        10.808242649246806-0.8519017108458481i
-1.6458803740231331       1.2409904782598664       10.843558127096244-0.8052827278246762i
-1.5320875082073617       1.2855768616442023       10.84559249340399-0.8938319084574009i
-1.6014787825378736       1.2996769685736038       10.88793016466149-0.8461664959294835i
-1.4862882078875281       1.3382628154045375       10.882102845318835-0.9351933543674597i
-1.5555573581321056       1.3535678401071294       10.928591385661939-0.8856189717705373i
-1.4386781865610048       1.3893182052767965       10.917723262699463-0.9759259926382183i
-1.5067904669382566       1.4051062205501965       10.967323343688404-0.9251891923448435i
-1.3893153786737424       1.4386809161800385       10.952402456913765-1.0159651748278027i
-1.4577983317810166       1.4573625080395516       11.008867069818708-0.9630925732714598i
-1.3382598930887217       1.4862908391530114       10.986088138828391-1.055241257691116i
-1.4067178136079672       1.5051667676027338       11.046208278271779-1.0005127041433648i
1.3546198215446106        -1.5599657916109144      8.9034126049172+1.035737345846983i
1.3382598930887217        -1.4862908391530114      9.012490050928804+1.0551020197368937i
1.4081626295330159        -1.5108405140015693      8.94424295721288+0.999010426875739i
1.3893153786737424        -1.4386809161800385      9.046175614614894+1.01582618042643i
1.4386781865610048        -1.3893182052767965      9.080854691675501+0.9757872340127672i
1.4587948680407357        -1.4586150874612         8.987715778538059+0.9622201390862234i
1.4862882078875281        -1.3382628154045375      9.116474998146803+0.9350548113530884i
1.5091747243078597        -1.4055656635000908      9.029716217350659+0.9233376268857372i
-1.3509695781981264       1.5529603235545317       11.083576540543355-1.0394040553879857i
-1.2855738451268326       1.5320900393664239       11.018727140699573-1.0936795703625881i
-1.2313213953763789       1.576022722326162        11.050265426358129-1.1312002234472998i
-1.2973812989622218       1.6013012894963756       11.125602644987007-1.0741196874408276i
-1.1755692772563593       1.6180348804555982       11.080647868740764-1.1677177113808477i
-1.2414989983382099       1.645313315921526        11.16311212284232-1.1086694205772512i
-1.1183845735992872       1.6580759770092384       11.109819565499974-1.2031423984008112i
-1.1838184108099619       1.6874829529068613       11.199810770092315-1.1423593821746805i
-1.059837212578299        1.6960970145702927       11.137724554444612-1.2373789489310072i
-1.124522626869659        1.7279413785533049       11.236044970274873-1.1749279145503515i
-0.9999985355119151       1.7320516530906418       11.164306770827748-1.2703275098791882i
-1.0621542345788608       1.7653498618816745       11.268484238807387-1.2078940417730666i
-0.9389419337642696       1.7658958194126329       11.189509982331407-1.3018837553963605i
-0.9997999229420774       1.8041944078282475       11.307613617863408-1.2369175756959336i
-0.8767411072639045       1.7975886712019693       11.213278738819705-1.3319403095226305i
-0.9370262707237496       1.8400613690154703       11.345009138672973-1.2639935875386668i
1.5320875082073617        -1.2855768616442023      9.152985243384624+0.893693570515859i
1.5580035553255058        -1.3516563592028505      9.07114016538962+0.883528915810286i
1.576020178323563         -1.231324651550908       9.190334979226966+0.8517635739194144i
1.6035294192144827        -1.2960053991860914      9.11374764144493+0.8440276771816375i
1.6580737714092937        -1.118387843533969       9.267356410920636+0.7664147585789604i
1.6180326317361413        -1.1755723723518754      9.228474791681293+0.8093203007838662i
1.689976389961963         -1.1829547027324494      9.197122495819462+0.7629985129722358i
1.6478795968189932        -1.2397819634829228      9.15554533541824+0.8035588804464778i
1.7652380540276953        -1.0612567209859327      9.286001514665424+0.6811534679004819i
1.732049554120839         -1.0000021710325444      9.347156779777945+0.679400978110102i
1.6960948514756706        -1.0598406742514284      9.306932526380335+0.7230939240387619i
1.7275840133696683        -1.1230081173307316      9.241509025619836+0.7230840380632575i
-0.8134722586817302       1.8270913727439153       11.235557758855103-1.3603863324669982i
-0.8721801199490229       1.871653642343861        11.376399238017726-1.2911721403163272i
-0.7492122255824168       1.854368097503255        11.256293027310695-1.387109392546756i
-0.8061656057947213       1.8997083188826753       11.403236332397881-1.3176129849360068i
1.7658939826672406        -0.9389453881774121      9.38798364565453+0.635375659780929i
1.8047214391601623        -1.0001603185977281      9.328253975361251+0.6372407990306045i
1.8390331954065573        -0.9374318297428378      9.372105351944219+0.5946851868205622i
1.797586906374097         -0.8767447256940895      9.429368597189258+0.5910543009249055i
1.8679685748513462        -0.872540972484351       9.417784561023899+0.5530078591229723i
1.8270897678796263        -0.8134758632618257      9.471268047806968+0.5464701084601342i
1.8955877215470416        -0.8047899919088299      9.464868491583276+0.509589750800237i
1.8543666708332327        -0.7492157567102231      9.513639244852689+0.5016534826035727i
1.8793843415870752        -0.6840427593340318      9.55644007917704+0.45663240696790214i
1.925909277433143         -0.738743921182038       9.509341202834534+0.46489450342527067i
1.9517794461019449        -0.6725477465481499      9.553985115790491+0.4214560651215972i
1.9021122442932346        -0.6180364148735531      9.599629096999864+0.4114326161961164i
1.9732733720156386        -0.6045395135260395      9.599902835403368+0.37814693743695177i
1.9225226650906264        -0.5512772462317256      9.643165521996997+0.3660777544897779i
1.990712688708008         -0.5359580177387063      9.64608155054208+0.3352282724678462i
1.9405906891889022        -0.4838468528711764      9.687009066597104+0.32058973303034494i
-0.6840392723252542       1.8793856107560087       11.275431883997813-1.4119962097486718i
-0.7402245957109256       1.9243075740881934       11.425854345720806-1.3426302329446074i
-0.6180331244361026       1.9021133134226649       11.292923475534076-1.434934029779367i
-0.6723657110523399       1.9502371135797452       11.455272266833534-1.3639051698974776i
2.006319157163847         -0.4646863906845795      9.693732840555954+0.2906749150219659i
1.9562945823640023        -0.41582629427833645     9.731120852570221+0.2749879416655645i
-0.5512739300701226       1.922523615986301        11.30871954985191-1.4558125629289795i
-0.6030625887483803       1.9723310545509891       11.478712302123286-1.384653951318505i
-0.48384305487816526      1.9405916361373317       11.322774741983146-1.4745254398144205i
-0.5334860556577448       1.992852395200964        11.502702064291581-1.4023904085521195i
-0.415822716831225        1.956295342776008        11.335047221462974-1.4909722263874687i
-0.4644753837489384       2.0105217957854893       11.523842931928968-1.4178207047211941i
-0.34729575105187127      1.969615612575539        11.345499289415159-1.5050604608591833i
-0.3954873486789302       2.0242736471911864       11.538138772951436-1.4323795468625342i
2.0235357707189445        -0.3933677004320386      9.7408228890898+0.24518602755541893i
1.9696151759501856        -0.347298227272644       9.775461893392695+0.22929097390725164i
2.036323965698533         -0.323266505951865       9.787087251040811+0.20113507801607652i
1.9805360863324843        -0.2783465658757216      9.819993188356833+0.18351666180921603i
2.043513870108308         -0.2500552185075749      9.835425588626386+0.15584820950244604i
1.989043884471589         -0.20905603470402634     9.864675880777481+0.13768205046605747i
1.9951281897439634        -0.13951167151523933     9.909471457817407+0.09180333048548567i
2.054054925607082         -0.17864915948081642     9.882186406366154+0.11092558991688369i
2.058983726415915         -0.10816115054482833     9.928405304415861+0.06711020123312067i
1.9987816782866166        -0.06979829901750112     9.954341920410684+0.04589578826697396i
2.059415243242203         -0.03591004334348845     9.975746445622592+0.022299200844186438i
2                         0                        9.999250837467022-2.7106720102223318E-5i
-0.27834573686787656      1.9805362028419167       11.354097898297203-1.5167076151280598i
-0.32575057985177863      2.036027703499538        11.550842921632672-1.4446035072625427i
-0.2090566021308754       1.9890438248327997       11.360815208083588-1.525843067647766i
-0.25517341423343387      2.047147926274189        11.566458426297977-1.452961649270417i
-0.1395126868041629       1.9951281187484384       11.365629031075661-1.5324098384376554i
-0.1840987360257056       2.0561416291936903       11.580396322788587-1.4586991101525866i
-0.06979881898713512      1.9987816601289903       11.36852320137893-1.5363660467712907i
-0.11214551660460499      2.061701543293234        11.588140988534489-1.463181075929146i
0                         2                        11.36948876542744-1.5376872379369637i
-0.03976730563629986      2.0643554998348783       11.591449304183-1.4657122083202567i
2.0617010568831495        0.03591883791162718      10.022769816342487-0.0223138719509363i
1.9987816571764048        0.06979890353827216      10.044160183689074-0.0459504263881154i
2.0586182354489306        0.10739985915982336      10.069584433419188-0.06671920350012428i
1.9951281070758407        0.1395128537303027       10.089031133251488-0.09185842810955396i
1.9890437986178802        0.2090568515494133       10.133826666975173-0.13773703900057618i
2.0525139081125765        0.17957525312882533      10.116871104648547-0.11171079617236689i
0.06979835037280635       1.998781676493267        11.368520123501218-1.5363617918299433i
0.03263772172402731       2.0640034433027687       11.58998426804809-1.466340038569981i
0.13951170843000513       1.9951281871626547       11.365622915404854-1.5324013952577957i
0.10514514619530949       2.0611942473868345       11.585636003291116-1.4644577746506586i
0.2090559915083712        1.9890438890116153       11.360806031957702-1.5258304278589832i
0.17749342299779683       2.0557515542786557       11.57786353953202-1.4602579882202937i
0.27834637793517847       1.9805361127458312       11.354085565341554-1.5166906740860935i
0.25083444797445276       2.046353345227109        11.562728610520155-1.4548240434862951i
1.9805361563521657        0.2783460676600089       10.178508781625961-0.18357096536706044i
2.0464233158102023        0.2531799083256972       10.165273345314821-0.1573763711797296i
1.9696155403119548        0.34729616087951104      10.223039402720557-0.2293444675221831i
2.0357607858196034        0.32432611246836757      10.212085130220375-0.20192917819201286i
1.9562952390095711        0.4158232050144448       10.267380195303012-0.27504103347812103i
2.0241127967367           0.3941605596708084       10.258251825024496-0.24557570626207073i
0.3472978314677468        1.9696152457416145       11.345483739437121-1.5050391777110377i
0.323409219281446         2.0381884540069497       11.556999935006564-1.443148750785576i
0.4158256290562705        1.9562947237622343       11.335028513598282-1.490946730314299i
0.39389145918079643       2.0265293894881053       11.544542818898906-1.430772241230751i
1.9405914083110758        0.4838439686399288       10.311492603797804-0.32064329445785933i
2.0090242077578497        0.46415654424640784      10.304639437497288-0.28970597787566077i
1.9225233592980142        0.5512748252491477       10.355337014402494-0.3661320165932805i
1.9907034128145258        0.5348600607377001       10.351651981638318-0.3346825555057114i
1.9021130360965448        0.6180339779588043       10.39887407160552-0.4114873159855601i
1.972229337825232         0.6055845106379643       10.399211030954996-0.3791231164385857i
0.48384588019049757       1.9405909317068044       11.322753067113574-1.4744960483898033i
0.46237273539815          2.009318461322435        11.519280979575614-1.4198080047491333i
0.5512760236420917        1.9225230156638864       11.308695102959296-1.45577959207309i
0.5343579826471558        1.9896531460035152       11.493793338725082-1.4047558918941734i
1.8793852732012923        0.6840401997500617       10.442063725498478-0.45668752820362735i
1.9502713395016649        0.6741214394221093       10.44544618098958-0.4228968223643261i
0.6180350129143284        1.9021126998188056       11.292896234780931-1.434897510609235i
0.6035509746650302        1.971799135111372        11.47744604899936-1.384803675383518i
1.8543677404515986        0.7492131093169914       10.484865291152405-0.5017091084827823i
1.9245236540772048        0.7410032867841227       10.490615620940092-0.46663767104229015i
0.68404124634702          1.879384892270877        11.275401844801587-1.4119561967794647i
0.6711974056580966        1.9512851405481753       11.45738580430121-1.3637317435064602i
1.8270909486671019        0.8134732111746207       10.527237347003128-0.546526356747136i
1.8965913726156642        0.8065778677579288       10.535165302125451-0.5100154187175435i
0.7492141990753098        1.8543673001603385       11.256260285990242-1.387066069291446i
0.7361898284398549        1.9251758045443226       11.425714206141231-1.3444618125491123i
1.7975881572937051        0.8767421609329744       10.569137789642197-0.5911112977372487i
1.8684590859675463        0.8716571561932255       10.580120716935534-0.5524457928377674i
0.8032386441419623        1.895260697455471        11.390789696247191-1.3224240583127036i
0.8134743253572835        1.8270904526006677       11.235522347585158-1.3603398094350492i
1.839113277734752         0.9362713188890752       10.625474961878178-0.5942415453044498i
1.7658952849272824        0.9389429389859597       10.610523827822336-0.6354334957391153i
0.8767432650153197        1.7975876187964461       11.213240719755225-1.3318907291358109i
0.872510519745336         1.8684744609280262       11.36932668000056-1.2928018425724952i
1.8060293243038217        0.9996537118372697       10.670134661977473-0.636390514679273i
1.7320508983115945        0.9999998428289871       10.651351862555202-0.6794597344336127i
0.938944029504763         1.765894705087865        11.18946948787452-1.3018313435152746i