% Model:              VLR_3_01V03.mph
% Version:            COMSOL 5.5.0.292
% Date:               Jun 7 2020, 21:16
% Dimension:          2
% Nodes:              3099
% Expressions:        1
% Description:        Electric potential
% Length unit:        cm
% x                       y                        V2 (V)
-0.06845997353350809      -0.34323932179135797     9.999993561122983+3.2801899917423356E-6i
-0.13405349149131807      -0.32331047217649334     9.999993561122965+3.274746188952698E-6i
-0.11561414392656333      -0.3911825448719893      7.863573308858733+2.5586385678854546E-6i
-0.034437382977096254     -0.39661169572477223     8.110180055439649+2.651423149853772E-6i
0                         -0.35                    9.999993561123+3.2820554706717957E-6i
-0.19189234492572801      -0.3553996965832178      8.212922035975366+2.6500679529871166E-6i
-0.19450083616024763      -0.2909801105453163      9.999993561122935+3.2659789383591117E-6i
0.04032822797313675       -0.3946319403816013      8.166204393669831+2.669711096172252E-6i
0.06845984519639875       -0.34323934738850254     9.999993561123016+3.2801900405309082E-6i
-0.25276432581609465      -0.3115163982886485      8.535247916467979+2.721332181769196E-6i
-0.24748706258425657      -0.24748768424593623     9.999993561122896+3.254299339406128E-6i
0.11670491760554472       -0.38467142948781013     8.074952160876999+2.628939228394934E-6i
0.1340542543830427        -0.3233101558593644      9.999993561123047+3.274745760575893E-6i
0.1830019169440351        -0.355797157739144       8.309068393174533+2.686571788436512E-6i
0.19450155247033515       -0.290979631738425       9.999993561123048+3.2659790911171343E-6i
-0.290979631738425        -0.19450155247033515     9.999993561122858+3.240206512300595E-6i
-0.31148668538064406      -0.2607980569754469      8.708663955093074+2.7145263394002573E-6i
0.253169118528863         -0.31617229150597004     8.421868191524482+2.6818107049968648E-6i
0.24748768424593623       -0.24748706258425657     9.999993561123054+3.2542990045546076E-6i
-0.3233101558593644       -0.1340542543830427      9.999993561122835+3.2242620314658505E-6i
-0.3582279437740692       -0.19308009068779255     9.05376064052038+2.7416214598652007E-6i
0.31292925172484154       -0.2636175018908803      8.640977130741293+2.688389330013373E-6i
0.2909801105453163        -0.19450083616024763     9.999993561123073+3.24020617088959E-6i
-0.3889771123683622       -0.11759684710004017     9.435993816175582+2.7630515201056468E-6i
-0.34323934738850254      -0.06845984519639875     9.999993561122821+3.207063385281124E-6i
0.3590804333559425        -0.19428575434733483     9.030271508143606+2.730911144481793E-6i
0.32331047217649334       -0.13405349149131807     9.999993561123087+3.224261779698436E-6i
-0.40364565810999625      -0.03829259825575888     9.81979277509262+2.7701318509959046E-6i
-0.35                     0                        9.999993561122821+3.1891639604457316E-6i
0.34323932179135797       -0.06845997353350809     9.99999356112309+3.207063385433111E-6i
0.39115357048193145       -0.11883391450281137     9.410651904444498+2.744981451075303E-6i
-0.4025651358011255       0.0414032919047465       10.192681536889324+2.7607721049951688E-6i
-0.34323932179135797      0.06845997353350809      9.999993561122832+3.171264525199194E-6i
0.40353684461198364       -0.03754232095142335     9.823744426702012+2.7713331735381493E-6i
0.35                      0                        9.999993561123077+3.189163960708476E-6i
-0.38822851938119507      0.1190002644375782       10.568402950066151+2.722158450036238E-6i
-0.32331047217649334      0.13405349149131807      9.999993561122837+3.1540662030430165E-6i
0.3845572679262381        0.11746004432345736      10.52905376012091+2.7512092907018223E-6i
0.32331058963087567       0.13405320821425934      9.999993561123022+3.15406625456232E-6i
0.3432394318907957        0.06845942152314605      9.99999356112305+3.171264641250939E-6i
0.40097635977216306       0.041325157906783094     10.18782378022337+2.772032836508548E-6i
-0.3572777924113453       0.1908030639675999       10.90956436232563+2.688248001931556E-6i
-0.2909801105453163       0.19450083616024763      9.999993561122839+3.1381216962983987E-6i
0.35649099628019626       0.1907609239380072       10.899991624408687+2.693540908143128E-6i
0.2909802080244964        0.19450069032787715      9.999993561123006+3.138121678654644E-6i
-0.3115578439910691       0.25365395567505955      11.172916930976557+2.6632449935619977E-6i
-0.24748768424593623      0.24748706258425657      9.99999356112285+3.124028708203413E-6i
-0.25958488914669076      0.31049477513852775      11.537947576813691+2.5790019048980518E-6i
-0.19450155247033515      0.290979631738425        9.99999356112287+3.1123487240236487E-6i
0.2536601534476814        0.3094665751687903       11.430558895800049+2.6182180844198663E-6i
0.1945014757239138        0.29097968303855815      9.99999356112298+3.112348989062085E-6i
0.2474877179217042        0.24748702890839946      9.999993561122983+3.1240287374325323E-6i
0.312273632585934         0.2580412513066721       11.255786212490746+2.633093122663508E-6i
-0.19220952521436838      0.35458152554253325      11.767580032838111+2.5297745462118896E-6i
-0.1340542543830427       0.3233101558593644       9.999993561122892+3.10358188969731E-6i
-0.06845984519639875      0.34323934738850254      9.999993561122903+3.0981381266400537E-6i
-0.11690671170443093      0.3933677028323607       12.219895298580868+2.3985451650822264E-6i
-0.03661732974506636      0.39818841785815895      11.953920738014553+2.486133899362202E-6i
0                         0.35                     9.999993561122933+3.0962727868969266E-6i
0.037070770633533486      0.3955550812218859       11.857845504470292+2.516132561332133E-6i
0.06846010096177578       0.3432392963754346       9.999993561122965+3.098138159574459E-6i
0.19173314528866253       0.3543790124439168       11.755911512289474+2.5336560087005336E-6i
0.13405383836519275       0.32331032835274337      9.99999356112298+3.1035817657689023E-6i
0.11591153194898238       0.39047311146152175      12.114867569316614+2.4317020684187763E-6i
-0.13714234471252196      -0.213669256196797       9.999993561123084+3.254245677898578E-6i
-0.18716639151777228      -0.2344541359972478      9.999993561122915+3.260466066678656E-6i
-0.13058075034814043      -0.2700901102197498      9.999993561122949+3.271556821056401E-6i
-0.06751048477287294      -0.29230520769519597     9.99999356112298+3.2785371575564177E-6i
-0.08078360303073458      -0.2239306588499934      9.999993561123146+3.2574919976113984E-6i
-0.029640172387038238     -0.24654885107550448     9.999993561123143+3.264482957470957E-6i
0                         -0.3                     9.999993561122995+3.2809737929830146E-6i
0.026912991783245556      -0.2379962907198463      9.999993561123196+3.2618590042767553E-6i
0.06751150340457515       -0.2923049724312845      9.999993561123022+3.278536991537406E-6i
0.07951537090964342       -0.23724546815779352     9.99999356112319+3.261575164705305E-6i
0.13058460596100485       -0.27008824610858034     9.999993561123048+3.271556250955837E-6i
0.18716975042868783       -0.23445145451556218     9.999993561123054+3.2604653517336493E-6i
0.11881194416687056       -0.2067215395501477      9.999993561123226+3.252160050703865E-6i
-0.23445145451556218      -0.18716975042868783     9.999993561122874+3.2459048130166845E-6i
-0.1725686306144295       -0.16750231257769443     9.999993561123093+3.2400791269114837E-6i
0.2344541359972478        -0.18716639151777228     9.999993561123066+3.245903780784293E-6i
0.16832548037314976       -0.1712769539256989      9.99999356112324+3.241238260573399E-6i
-0.21763848435927421      -0.13264305796571868     9.999993561123025+3.229382117194105E-6i
-0.27008824610858034      -0.13058460596100485     9.999993561122848+3.2286425414279472E-6i
0.20608328831045278       -0.1285088286732392      9.999993561123235+3.228149976963898E-6i
0.2700901102197498        -0.13058075034814043     9.999993561123079+3.2286413355021495E-6i
-0.23104157421369514      -0.07848640450456601     9.999993561123041+3.2129355209594324E-6i
-0.2923049724312845       -0.06751150340457515     9.999993561122821+3.2095314509126834E-6i
0.23866604016211732       -0.08793073655130071     9.999993561123203+3.2157862157307957E-6i
0.29230520769519597       -0.06751048477287294     9.99999356112309+3.2095311210245526E-6i
-0.25166983111152386      -0.02756926199003925     9.999993561123002+3.197503650624701E-6i
-0.3                      0                        9.999993561122821+3.1891639146314483E-6i
0.2433325413927475        -0.03611508846414281     9.999993561123228+3.200093695388911E-6i
0.3                       0                        9.999993561123073+3.1891638957324513E-6i
-0.24062836504601606      0.024324684009148466     9.999993561123047+3.181801395301865E-6i
-0.29230520769519597      0.06751048477287294      9.999993561122832+3.1687967498860575E-6i
0.2491365269390062        0.015571154846957822     9.999993561123208+3.184452997212348E-6i
0.2923049724312845        0.06751150340457515      9.999993561123052+3.168796429363493E-6i
-0.2374699758057831       0.07957209539152123      9.99999356112301+3.1650719642349423E-6i
-0.2700901102197498       0.13058075034814043      9.999993561122835+3.1496866807827517E-6i
-0.2048973622497034       0.12225613952534561      9.99999356112305+3.152074766937615E-6i
-0.2344541359972478       0.18716639151777228      9.999993561122848+3.132424324749116E-6i
0.27008824610858034       0.13058460596100485      9.999993561123022+3.149685467082717E-6i
0.22612350886877333       0.07696229557706383      9.999993561123214+3.165847993497296E-6i
0.21335006045497037       0.1290179923287247       9.999993561123167+3.1500376543170655E-6i
0.23445145451556218       0.18716975042868783      9.999993561123+3.132423218700163E-6i
-0.17550947359759164      0.17207325104778176      9.999993561123043+3.1368629778025513E-6i
-0.18716975042868783      0.23445145451556218      9.999993561122865+3.1178626456948573E-6i
-0.13058460596100485      0.27008824610858034      9.999993561122885+3.106771658992085E-6i
-0.12467309176928316      0.19873769235434327      9.999993561123091+3.128619753437156E-6i
-0.07943223362702809      0.23487051873099038      9.999993561123071+3.1174809282517717E-6i
-0.06751150340457515      0.2923049724312845       9.999993561122903+3.0997908780570634E-6i
0.18716639151777228       0.2344541359972478       9.999993561122976+3.1178619126153522E-6i
0.16997248063049242       0.16707027031819677      9.999993561123182+3.1383749154952462E-6i
0.13799443101555328       0.21545210714338547      9.999993561123121+3.1235392377322394E-6i
0.13058075034814043       0.2700901102197498       9.999993561122983+3.1067711451841533E-6i
0                         0.3                      9.999993561122931+3.09735433311702E-6i
-0.023334371744381684     0.23444762347651082      9.999993561123114+3.117556225078813E-6i
0.06751048477287294       0.29230520769519597      9.999993561122972+3.09979092172229E-6i
0.08394464397083788       0.22287843443972744      9.99999356112316+3.1211629380582343E-6i
0.03287526696817692       0.2491270992932752       9.9999935611231+3.1130553319915856E-6i
-7.617210336293516        -4.6018779994529915      0.2212600037355668
-8                        -4.418327574112066       0.22618146643962933
-8                        -5                       0.22116272094038977
-7.407407407407416        -5                       0.21614489999464007
-7.576175993408439        -4.1135264015227095      0.22979664972314948
-8                        -3.836655148224132       0.242474600550479
-7.102468280651719        -4.477536021630181       0.21298172262164308
-6.814814814814824        -5                       0.2022180272791223
-7.523847247572936        -3.559026454489945       0.24910323851518124
-8                        -3.254982722336198       0.27450209497559325
-7.082919118368476        -3.8417937764244723      0.2247136814143679
-7.020027809634518        -3.279560965965081       0.2414193077331439
-6.670027847094658        -4.092795272744226       0.2040526423172268
-6.485594655934237        -4.524953159081558       0.19297921131098808
-6.22222222222223         -5                       0.18214032935224753
-7.513769941727061        -3.039507278508539       0.28129131861751683
-7.039593008176215        -2.7963739484585197      0.26703741933764036
-8                        -2.681285058837913       0.33243989731044216
-6.893292469324473        -2.051246749921415       0.28626152170712243
-6.957246696383734        -2.3608341838851663      0.2833779173756759
-6.548481660176914        -2.213317755202897       0.2269513224002573
-6.673887984331124        -2.5840888054533826      0.23900709333477838
-6.5840177146948315       -2.988442479761515       0.22107377984673335
-6.503485317345624        -3.5634304229928264      0.2046405420516615
-6.1756718631732355       -4.056262983592094       0.1834372517629594
-5.914632851312483        -4.526167089401045       0.17077674820212096
-5.629629629629637        -5                       0.15921528384931016
-7.493398858042305        -2.449056549130817       0.3425081704771734
-7.233462130552236        -2.0545367168529975      0.35708580801061135
-8                        -2.1739568666708937      0.42766172219058446
-7.047016958313591        -1.7838230225815697      0.33190389847064594
-6.680254901195891        -1.8437220710844446      0.2416855167296017
-6.308732441796295        -1.8711308721515125      0.18023517020619578
-6.154466646837162        -2.181621730149695       0.17656481831022688
-5.9642541054687594       -1.9445844722470924      0.14467149869224036
-6.191034847818813        -2.594176291676379       0.18947243743109501
-6.0771081160939175       -3.1127977990938582      0.18245084554656132
-5.871312213645658        -3.579100406628731       0.17017910554444848
-5.604753469542125        -4.051934113554176       0.15779171271292994
-5.325447342734122        -4.526145634170266       0.14691786430993015
-5.037037037037043        -5                       0.13622944681208748
-7.6306142630260645       -1.9503733881008223      0.45935836931564694
-7.39030264094276         -1.7302925203605097      0.4516906921889258
-7.221504483974736        -1.5212879636676762      0.4085268954503562
-8                        -1.7770508616229572      0.5659738669551668
-6.871870260271285        -1.4984262195791045      0.2661034466890686
-7.070783674529974        -1.2816362583518328      0.3111376937918639
-6.507198237662852        -1.5878173976002847      0.18769024146679283
-6.257088605980732        -1.622448795884906       0.1521115184070586
-6.857926826876376        -1.2739646576930197      0.22121707423261192
-7.063200676219898        -1.1078293093012856      0.24919992136892968
-7.210489842473606        -1.1319439086761598      0.3534584735872705
-6.922231788320341        -1.1342955863060848      0.20047642961777964
-6.049382935251749        -1.704403882891265       0.1353446253995458
-6.307518885380999        -1.4595168729784609      0.13943874206885087
-6.123051806005333        -1.479469473657229       0.11977234364364263
-5.822721970096162        -1.6997839022930152      0.11378673509437436
-5.65872615497711         -1.8941347634743457      0.11534435831426033
-5.631138023895231        -1.666149004439215       0.09685405434114437
-5.759926727047314        -2.2848702220160164      0.14364480092080242
-5.770290838385472        -2.7374770566877573      0.15742775772887296
-5.32350785995512         -2.0323915300520694      0.10181071452306792
-5.537373067090552        -3.095781132916655       0.14836675296637084
-5.290214362464174        -3.5792124221446024      0.14100781921440356
-5.019970590077037        -4.053932149893056       0.13291118985417658
-4.734582655999141        -4.528293919062976       0.12432197668578572
-4.44444444444445         -5                       0.11503284683735286
-7.348652850206901        -1.303994056587654       0.4984585791828709
-7.403662367374662        -0.9690300197614888      0.47805689943078084
-7.385522277035308        -1.1136370980102954      0.5233712131175273
-7.2703261162549          -0.9914926855130454      0.32240677641737836
-7.707921542533751        -1.6184421653838914      0.6032972562174659
-7.501296467256188        -1.453291865576101       0.5792939338048052
-8                        -1.4658299786020534      0.7664280304395356
-6.655123587924697        -1.311383625448447       0.1749798350535958
-6.436227613654777        -1.3262946543711955      0.13727488799023266
-6.770502950290842        -1.1446934341744945      0.1593738562849956
-6.633471533338428        -1.1112064994070183      0.12107378823332374
-7.12796961515467         -0.9951436027341686      0.220529327896648
-6.984528460620908        -0.9961271904381828      0.15945802501001707
-6.843884931390622        -1.0035061609719345      0.12454901037242481
-5.450808243400067        -1.7370294497986634      0.09103283023961005
-5.237755261475301        -1.7259903480819652      0.07920604713902842
-5.918061055191331        -1.4943625854944607      0.10221646542816161
-6.21402816360129         -1.2815540433786883      0.1017605973780982
-6.005901718587169        -1.3057608530665503      0.08670497546810933
-5.714798020146821        -1.4950633038893293      0.08736195965497319
-5.5086454324422505       -1.5047315127058418      0.07620830327963025
-5.037438643472588        -1.8329736868779878      0.07677433547220525
-5.286011433876762        -2.5997598377358773      0.12299090363250008
-4.922234362161035        -2.2132510073092133      0.09039429830768018
-4.992295959391227        -3.10649721990891        0.12043371924392289
-4.71417233666015         -3.589362367762          0.11633924056435031
-4.43291317285752         -4.061540143514395       0.11095239653157497
-4.14510521445057         -4.53072935875451        0.10438443347355231
-3.8518518518518565       -5                       0.09658867783792646
-4.764296314598147        -1.8836023955499777      0.0690240536655657
-7.487684344475151        -0.9304246230038051      0.6294908278073699
-7.4287471937781495       -0.8575528430806876      0.3688458421247583
-7.319527272936574        -0.8655926254868088      0.22256289666173856
-7.189286745317472        -0.870798365445637       0.14354996223313873
-7.51743337057139         -1.0313192275421736      0.7293620876310328
-7.558444179375715        -0.9354172965541631      0.8457847933870241
-7.588243012185732        -1.1835703545151568      0.7846198949119555
-7.766691438064373        -1.3355502249803515      0.8249979336582013
-7.530134611275834        -0.8588037280805129      0.717689221577428
-7.603237172189398        -0.8843413010992472      1.0338226596916809
-8                        -1.203555544390462       1.0816546369122462
-6.4984024087108985       -1.169976853104304       0.11491210777698434
-6.343077435665798        -1.152627624643976       0.09207275905169025
-6.706683136428697        -0.9966548686366015      0.0964170732019881
-6.551386008664352        -1.0038506140630716      0.07867992962894206
-6.209293892275434        -1.0988467186160726      0.06980870204350954
-7.050020246309739        -0.8726973765534277      0.09871715800837105
-6.909623550087785        -0.8744294048288687      0.07290980434591433
-6.7697397025951584       -0.8748364814473745      0.05610633903393123
-5.305640970206337        -1.5224972417667124      0.0679797039362804
-5.09671208252819         -1.5482820663688424      0.06154706456363388
-5.793984229697314        -1.281610050214984       0.0695685579740216
-6.073517755922158        -1.148102732570385       0.06866475888638
-5.927946564154697        -1.1470013684139908      0.05978361017415396
-5.59123348596497         -1.3064904690067878      0.061909906901688384
-5.379862224184537        -1.2899055729853734      0.05180342949231697
-4.8770074397230765       -1.575737495058533       0.05595074312935457
-4.696418468719192        -2.648019599728544       0.09630510694558682
-4.394036861799703        -2.141635981747112       0.06822408134364005
-4.4955594461110255       -1.7844557868024196      0.05601266642578916
-4.265500284106274        -1.775386260526777       0.04992149043229404
-4.047451874702788        -1.7299224585499244      0.043512779203386094
-4.074403777858306        -1.9315062502364724      0.05189576567246253
-4.415715913090107        -3.132258572987487       0.09756152537184927
-4.13264912133956         -3.6038751317401316      0.09596080367838118
-3.8468386617216273       -4.0667931694203014      0.09249449444090492
-3.555323260393813        -4.532119538120347       0.08753674734860943
-3.259259259259263        -5                       0.08123029026167371
-3.8025449391703146       -1.8388615978815641      0.04313561518854608
-3.883471671538283        -1.6367841751128285      0.0370232538383497
-3.732206586334251        -1.6341286636662165      0.034668599534429266
-4.638812781614711        -1.570461971915811       0.04902018360557498
-4.409366327363949        -1.543853237305467       0.04242147439397015
-4.198622546517228        -1.5278274587236012      0.037681178502722644
-4.006620025633414        -1.5000669777409814      0.03340136724080695
-7.5                      -0.75                    0
-7.386851504217098        -0.75                    0
-7.253745713548048        -0.75                    0
-7.11430348904341         -0.75                    0
-7.652429656961231        -0.9773436456430356      1.0895449873838443
-7.802687606410568        -1.0886114414144454      1.1830269665024475
-7.601568002969277        -0.7976503936251569      1.1282775996371528
-7.673609410364933        -0.8524914415933678      1.3881487801163743
-7.595289148974843        -0.6988917325900171      1.4058905889255557
-8                        -0.963976389492665       1.6388883682340822
-6.4153535685985865       -1.0160406755784535      0.06875238215577238
-6.28816665445215         -0.9978375547993357      0.05521319704460705
-6.627597609550861        -0.8754076286064406      0.04466113448649497
-6.486074666114529        -0.87886014558512        0.037424794095635074
-6.133201112260434        -0.9966829681598047      0.0464192482989512
-6.974807342199423        -0.75                    0
-6.835311195355436        -0.75                    0
-6.695815048511449        -0.75                    0
-5.178749681219257        -1.3270045222424842      0.04827950580416939
-4.960791678794633        -1.29746005205742        0.040253310024750986
-5.789933265226486        -1.102909468243948       0.04744951282212981
-5.652946730076666        -1.152394100803257       0.04806422016247323
-5.999795006886044        -1.006343633903345       0.04217096273417938
-5.86590304248867         -0.9955850941151718      0.03573893786833057
-5.510975879438892        -1.1485243661600137      0.042749210483603535
-5.372663829699919        -1.105294950430504       0.034665517524694246
-5.240586295060651        -1.1543902712083842      0.035900096442848854
-4.749672601732653        -1.3401110741666251      0.03833783956229426
-4.126025959664417        -2.6791971506566408      0.07738010305750974
-3.8588964408780733       -2.257323547959899       0.05815255078082694
-3.8327336327660992       -3.166599968128697       0.07993202186144799
-3.5531376624962108       -3.6070500388296947      0.07954752124281596
-3.261011986496469        -4.066232768977531       0.07742311780272286
-2.964637154915298        -4.532167159821674       0.07381280640419365
-2.6666666666666696       -5                       0.06892744526654085
-3.476013042451621        -1.9597706224543665      0.0416721579149589
-3.545371180428881        -1.7225954671912385      0.035142449541235875
-3.8137801211167033       -1.477022607678923       0.02984232414894661
-3.615709783185704        -1.495377338252297       0.028162750841824614
-3.405671660317307        -1.4992694021462183      0.026061648275402926
-4.536974560159415        -1.2950118426118438      0.03175037992599806
-4.318214018372775        -1.3080035271183141      0.029112756686132557
-4.112078321956289        -1.2915105839513077      0.025659506701771854
-3.9104518000280732       -1.302967469387482       0.023922066349451553
-7.5                      -0.6499999999999999      0
-7.806969419632516        -0.8662399019162403      1.7774197327392989
-7.695603240239017        -0.7504023435402161      1.8564091196990093
-7.678968823337253        -0.6398106314926125      2.457092315728691
-7.595594827303518        -0.6054870268821175      2.174052975027237
-7.544800505944693        -0.526511541987858       2.829477046963874
-8                        -0.7414110796047844      2.629037948804398
-6.348969153382441        -0.8778619552627545      0.03113769644210736
-6.210070708739461        -0.8744335278876063      0.025788466888137292
-6.556318901667462        -0.75                    0
-6.416822754823475        -0.75                    0
-6.068204701253088        -0.8754498141861781      0.022368590789676988
-5.08911247103021         -1.1494692626413139      0.03219072025478293
-4.952779218158119        -1.1029328230556548      0.026260159477532147
-4.8169085689678734       -1.1557483785497924      0.02779012916974988
-5.711702711080628        -0.999491841902471       0.03179811189639186
-5.579076338566764        -1.0079646225403989      0.02955252638130723
-5.929996865237221        -0.8752398259745399      0.019519925620339815
-5.788906739073035        -0.874063606687189       0.017030876157968857
-5.447956533990998        -0.9969957026273071      0.0256614497321965
-5.294599527587177        -1.0030936143327531      0.02358394950797664
-5.161683252083136        -1.0122188513623265      0.02235015244673748
-4.665011131800918        -1.1499902250959981      0.025190124453807135
-4.532527070555773        -1.1042168056303105      0.020842933051935825
-3.53345178869962         -2.7283995504956806      0.06333593695923447
-3.251575012133427        -2.3323850417932888      0.048328588322166736
-3.1295361605768672       -1.9756219850510206      0.03718802200202658
-3.2597398656307015       -3.1521101442333452      0.06581979090325595
-2.9678152451062085       -3.6023241321922352      0.0664294145160001
-2.6714788904174824       -4.064503087648163       0.06543893944046121
-2.3731694241595176       -4.531408738935058       0.06305112816874232
-2.074074074074076        -5                       0.0594834714051286
-3.2498211509308415       -1.7041444308812044      0.03088306349160069
-3.21727874518803         -1.4695755245160331      0.02336114534724509
-2.944697841637682        -1.7615950960803026      0.02929271753041798
-3.708720853899682        -1.2826127292581204      0.021164000027291203
-3.499084367678177        -1.3069808152870153      0.020302305089098735
-3.296773289340186        -1.2833586100236885      0.017997895310502474
-4.395705835549036        -1.1539082998284473      0.02210292453832437
-4.255548061438062        -1.1484478102335716      0.0203595872976174
-4.115208489628182        -1.106219158938094       0.01706384034686297
-3.979883312076287        -1.1470416855171104      0.017849440664931004
-3.8316807933167283       -1.142088657903308       0.0165170146798482
-3.698274997839391        -1.0976535042603264      0.013859040524516147
-7.3885350493463235       -0.6499999999999999      0
-7.431049946441254        -0.5355063766837467      2.16886634208582
-7.481565765057847        -0.4355258645167682      3.9057373275505376
-7.257558114957555        -0.6499999999999999      0
-7.303924607953443        -0.5308820905992151      2.0049882534813803
-7.118101309697774        -0.6499999999999999      0
-7.184795312993013        -0.5238826292286852      2.0301036432726787
-6.978530695782135        -0.6499999999999999      0
-7.050858892508663        -0.524095512374549       1.980833667614456
-6.838960081866496        -0.65                    0
-6.909996891550299        -0.5263841549809647      1.9228751203462517
-7.818156144793449        -0.6395372129143353      3.0561618027527637
-7.685841284347821        -0.5036068572353221      3.815906308606018
-7.574751212517719        -0.42894312660919354     4.304006741058384
-8                        -0.5203362555764333      4.279954462027963
-6.277326607979488        -0.75                    0
-6.137830461135501        -0.75                    0
-5.9983343142915135       -0.75                    0
-6.699389467950858        -0.6499999999999999      0
-6.769650546375702        -0.5256882291953668      1.9230751327062665
-6.5598188540352185       -0.6499999999999999      0
-6.6358502141191575       -0.5263613434683416      1.9076123141303485
-6.420248240119579        -0.6499999999999999      0
-6.492615240372887        -0.5249719017921606      1.9262724745844524
-5.028940688042478        -0.9962342674903393      0.01931098506073954
-4.8740660859909735       -0.9996935051138569      0.01783651846336287
-4.741173486584835        -1.0084324377284912      0.017101087006049374
-5.648320177928973        -0.8762767975754029      0.015410468528101339
-5.511047384490323        -0.8761407143223581      0.01382726399733803
-5.8588381674475265       -0.75                    0
-5.7193420206035395       -0.75                    0
-5.370735774569478        -0.8756074463100649      0.01242116117041935
-5.230312044331483        -0.8779328817791359      0.011479852614204521
-5.092642698449937        -0.8766773786696701      0.010388642738128255