% Model:              VLR_3_01V03.mph
% Version:            COMSOL 5.5.0.292
% Date:               Jun 7 2020, 21:17
% Dimension:          2
% Nodes:              3454
% Expressions:        1
% Description:        Electric potential
% Length unit:        cm
% x                       y                        V2 (V)
-1.8270913727439153       -0.8134722586817302      9.999225478301172-1.993281846892307E-4i
-1.854368097503255        -0.7492122255824168      9.999225478301094-1.9933657546758316E-4i
-1.8968848589689582       -0.8074555185168641      9.954586103559249-1.9744805109600722E-4i
-1.7975886712019693       -0.8767411072639045      9.999225478301266-1.9931986812278483E-4i
-1.8684695492449017       -0.8726024158591845      9.949634844707026-1.9737273032349725E-4i
-1.838730339094434        -0.9361435550861009      9.944028965096878-1.9727536185650747E-4i
-1.7658958194126329       -0.9389419337642696      9.999225478301334-1.9931163306928393E-4i
-1.7657628254268891       -1.0606897429665312      9.937261027499106-1.9724808376174168E-4i
-1.6960970145702927       -1.059837212578299       9.999225478301476-1.9929543836967438E-4i
-1.7320516530906418       -0.9999985355119151      9.999225478301408-1.9930348720497695E-4i
-1.8045903674521389       -0.9987305515379505      9.939792721229907-1.9723286557437195E-4i
-1.6180348804555982       -1.1755692772563593      9.999225478301655-1.9927966541581516E-4i
-1.6580759770092384       -1.1183845735992872      9.999225478301563-1.9928749489591684E-4i
-1.6921347899351493       -1.1851160871375896      9.919472092328164-1.9687176928375607E-4i
-1.7301808677985302       -1.1244420664879673      9.928021949696186-1.9704438410454708E-4i
-1.576022722326162        -1.2313213953763789      9.99922547830177-1.9927195898200022E-4i
-1.6023395791543555       -1.2970767177316982      9.912821785732687-1.9684239542631354E-4i
-1.5320900393664239       -1.2855738451268326      9.999225478301923-1.992643849047037E-4i
-1.6492436006360707       -1.24302435214653        9.914108842154745-1.968003183007273E-4i
-1.5538404483538009       -1.350969097963047       9.910161725511387-1.9684034884313902E-4i
-1.4862908391530114       -1.3382598930887217      9.999225478302067-1.9925695313109744E-4i
-1.4386809161800385       -1.3893153786737424      9.999225478302218-1.9924967397025184E-4i
-1.506389899430641        -1.407187029698047       9.899831701435986-1.9663213277351803E-4i
-1.3893182052767965       -1.4386781865610048      9.999225478302378-1.9924255819508442E-4i
-1.4588486124778561       -1.4596020417357074      9.889187894233908-1.9641972839473684E-4i
-1.3382628154045375       -1.4862882078875281      9.999225478302517-1.992356170711771E-4i
-1.4072576929348317       -1.5105024588752014      9.880184817804809-1.962555111377944E-4i
-1.2855768616442023       -1.5320875082073617      9.999225478302664-1.992288623521324E-4i
-1.3538200910863012       -1.5601768547679125      9.86982339588761-1.9606085880889725E-4i
-1.231324651550908        -1.576020178323563       9.999225478302796-1.9922230631654018E-4i
-1.2983039079409304       -1.6071529460558318      9.860568397784677-1.958956478930662E-4i
-1.8793856107560087       -0.6840392723252542      9.999225478301014-1.9934503338883832E-4i
-1.9237957559723091       -0.7416522417207927      9.958780529066724-1.9749407006384155E-4i
-1.9021133134226649       -0.6180331244361026      9.999225478300938-1.9935355157655633E-4i
-1.9507352215737552       -0.6754993316089145      9.961517156860223-1.9746811829241134E-4i
-1.922523615986301        -0.5512739300701226      9.999225478300852-1.9936212344402976E-4i
-1.9741310277773154       -0.6074037321331894      9.965261058032882-1.9748319903993564E-4i
-1.9405916361373317       -0.48384305487816526     9.999225478300783-1.9937074255576867E-4i
-1.9942913560812872       -0.5377149347287834      9.969516513661103-1.9752373433459946E-4i
-1.956295342776008        -0.415822716831225       9.99922547830071-1.9937940263949715E-4i
-2.0106452197126727       -0.46697262842868187     9.974212423206808-1.9759799680067798E-4i
-1.969615612575539        -0.34729575105187127     9.99922547830065-1.99388097579918E-4i
-2.0239141270628176       -0.39489183737775907     9.97892541095021-1.9768690337902898E-4i
-1.1755723723518754       -1.6180326317361413      9.999225478302902-1.99215961728411E-4i
-1.240613409237575        -1.6512897835487867      9.853129090283312-1.957744830475748E-4i
-1.118387843533969        -1.6580737714092937      9.999225478303002-1.9920984180727132E-4i
-1.1815135538725083       -1.6927387732013295      9.846667225216079-1.956750531014939E-4i
-0.803901036698673        -1.8955269930196903      9.806578828495482-1.9501564063420507E-4i
-0.7492157567102231       -1.8543666708332327      9.99922547830362-1.9917863177553472E-4i
-0.8134758632618257       -1.8270897678796263      9.999225478303522-1.9918310426543222E-4i
-0.8767447256940895       -1.797586906374097       9.999225478303442-1.9918788829258207E-4i
-0.8716632976796667       -1.8673060035395563      9.81033725305135-1.9506476703243407E-4i
-0.9389453881774121       -1.7658939826672406      9.999225478303346-1.9919296887446143E-4i
-0.9364025866353307       -1.836686677107928       9.817031130501713-1.9517643864802277E-4i
-1.0598406742514284       -1.6960948514756706      9.999225478303096-1.992039602320514E-4i
-1.1214695092669533       -1.731239136582077       9.841479145466485-1.956027206280183E-4i
-1.0000021710325444       -1.732049554120839       9.999225478303218-1.9919833109891688E-4i
-0.9988486357881768       -1.803026312328958       9.827375327873156-1.953681372364327E-4i
-1.0604035257450843       -1.7675045152873343      9.836463066142713-1.9553187225859202E-4i
-0.20905603470402634      -1.989043884471589       9.99922547830437-1.9915575783394158E-4i
-0.2783465658757216       -1.9805360863324843      9.999225478304307-1.991572461977645E-4i
-0.24839240444064387      -2.0466798338112575      9.73602650672378-1.9368732895044187E-4i
-0.6840427593340318       -1.8793843415870752      9.999225478303712-1.9917448574949349E-4i
-0.7358454030556705       -1.9247712621743476      9.79168536052393-1.947250726899066E-4i
-0.6180364148735531       -1.9021122442932346      9.999225478303819-1.9917068087911137E-4i
-0.6681944443541917       -1.9513653914962266      9.775696639409388-1.9441122369012197E-4i
-0.5512772462317256       -1.9225226650906264      9.999225478303918-1.9916723143011461E-4i
-0.5994325277438942       -1.9729707228409314      9.76886093473923-1.9429135364518752E-4i
-0.347298227272644        -1.9696151759501856      9.9992254783042-1.9915914736342078E-4i
-0.3202077640738143       -2.0364436927272362      9.742051496442917-1.938012719549245E-4i
-0.41582629427833645      -1.9562945823640023      9.999225478304112-1.9916145245114645E-4i
-0.3920593742459842       -2.024229313901648       9.746637481112527-1.9388260720286894E-4i
-0.4838468528711764       -1.9405906891889022      9.99922547830401-1.99164151042998E-4i
-0.46171066893908763      -2.009564757378706       9.753258376070624-1.940043833678545E-4i
-0.5305778808941747       -1.992137660000152       9.7622023073819-1.9417294573833535E-4i
-1.9805362028419167       -0.27834573686787656     9.999225478300586-1.9939682136972802E-4i
-2.038123445856784        -0.3231451569422349      9.982366469959958-1.9767494430653914E-4i
-1.9890438248327997       -0.2090566021308754      9.999225478300534-1.9940556812430397E-4i
-2.047333381723548        -0.25294709719484615     9.986245482994242-1.9771654883000232E-4i
-1.9951281187484384       -0.1395126868041629      9.999225478300497-1.9941433204023238E-4i
-2.0527971585220888       -0.18250779468856448     9.990188736481336-1.9778878055869628E-4i
-2.055510685955301        -0.10775710369677365     9.994122743696584-1.9787222986761442E-4i
-1.9987816601289903       -0.06979881898713512     9.999225478300477-1.9942310734788102E-4i
-2                        0                        9.99922547830046-1.994318884812443E-4i
-2.0609503665501987       -0.03532720649297435     9.997477331471877-1.978083430340445E-4i
-1.9987816782866166       0.06979829901750112      9.999225478300454-1.99440669544044E-4i
-2.062255206028271        0.03607510490833479      10.001053868184904-1.9778249937932126E-4i
-1.9951281897439634       0.13951167151523933      9.99922547830043-1.9944944477393714E-4i
-2.059177115824014        0.10717646336974788      10.004608612387337-1.9780301574131732E-4i
-1.989043884471589        0.20905603470402634      9.999225478300438-1.9945820872038834E-4i
-2.0540216546597705       0.1774723430639696       10.008124179416816-1.978116836647029E-4i
-1.9805360863324843       0.2783465658757216       9.999225478300433-1.9946695561554785E-4i
-2.0473440157378167       0.24819105460711657      10.011853745227492-1.9779175210826643E-4i
-1.8543666708332327       0.7492157567102231       9.999225478300433-1.9952720132766574E-4i
-1.8270897678796263       0.8134758632618257       9.999225478300437-1.9953559199733845E-4i
-1.8992794724261728       0.8055669104085879       10.044747302137374-1.9759878802723117E-4i
-1.8793843415870752       0.6840427593340318       9.999225478300431-1.995187435080537E-4i
-1.9538766265359424       0.6739504147195213       10.038202573473113-1.975592021978745E-4i
-1.9021122442932346       0.6180364148735531       9.999225478300424-1.9951022539198542E-4i
-1.9284455155662314       0.741161018294935        10.042219278504689-1.9754989579936263E-4i
-1.9753020024499035       0.6045140719533442       10.03314953546554-1.9762099768137688E-4i
-1.9225226650906264       0.5512772462317256       9.999225478300414-1.995016536142727E-4i
-1.9696151759501856       0.347298227272644        9.999225478300419-1.9947567956853272E-4i
-2.038565327939921        0.31910522268817615      10.015825590879706-1.9775712111084248E-4i
-1.9562945823640023       0.41582629427833645      9.999225478300396-1.994843745937241E-4i
-2.024487860481131        0.3893598718528136       10.01908429097301-1.9779480557198127E-4i
-1.9405906891889022       0.4838468528711764       9.999225478300394-1.99493034640058E-4i
-2.007819137537425        0.46166306202826957      10.022492279285943-1.978176850216143E-4i
-1.9919782415631409       0.5336201637105565       10.0272845042946-1.9774371908991132E-4i
-0.13951167151523933      -1.9951281897439634      9.999225478304426-1.9915468939838787E-4i
-0.1771390409065029       -2.0538149722584653      9.73327874249024-1.936387177964062E-4i
-0.06979829901750112      -1.9987816782866166      9.99922547830449-1.9915404609520358E-4i
-0.10646209602504836      -2.059539453912678       9.727038554508008-1.9351496864405165E-4i
0                         -2                       9.999225478304513-1.9915383091197118E-4i
-0.035103194808098565     -2.0623753195893224      9.724041542242931-1.9345574980099913E-4i
0.06979881898713512       -1.9987816601289903      9.999225478304506-1.9915404542667492E-4i
0.03637159926869011       -2.0608052511375137      9.730755580497286-1.935947355405054E-4i
0.10809367751399274       -2.0559128413425474      9.742332782917186-1.9383171576892294E-4i
0.1395126868041629        -1.9951281187484384      9.999225478304474-1.9915468807045594E-4i
0.2090566021308754        -1.9890438248327997      9.99922547830444-1.9915575584379542E-4i
0.25083587599534446       -2.0483328128729377      9.728019389453022-1.9352066669093597E-4i
0.27834573686787656       -1.9805362028419167      9.999225478304407-1.991572435259556E-4i
0.17949720443063702       -2.05339343981245        9.734302660486923-1.9365973307379478E-4i
0.32219822627770994       -2.0394800778485886      9.728523965052581-1.9351927168868486E-4i
0.34729575105187127       -1.969615612575539       9.99922547830437-1.9915914399548643E-4i
0.39335314841982855       -2.0276084479039898      9.732353671036897-1.9358407265218964E-4i
0.415822716831225         -1.956295342776008       9.999225478304352-1.9916144839868198E-4i
0.46398855819921253       -2.0126378037527535      9.739698915483709-1.9371966796471766E-4i
0.48384305487816526       -1.9405916361373317      9.999225478304346-1.991641463450121E-4i
0.5338002665713161        -1.9936827925582596      9.753693708277327-1.939929506037021E-4i
0.5512739300701226        -1.922523615986301       9.999225478304325-1.9916722613579288E-4i
1.059837212578299         -1.6960970145702927      9.999225478304037-1.9920395066228588E-4i
0.9999985355119151        -1.7320516530906418      9.999225478304087-1.991983219788507E-4i
1.0629423670457063        -1.7674305417563738      9.833477603177426-1.954633307176364E-4i
0.6180331244361026        -1.9021133134226649      9.999225478304304-1.9917067498708376E-4i
0.603926932652814         -1.9720863958863324      9.767696710349655-1.9426522575283924E-4i
0.6840392723252542        -1.8793856107560087      9.999225478304263-1.991744792654913E-4i
0.6738511321613488        -1.951301895022179       9.770127210639325-1.9429058894742196E-4i
0.7492122255824168        -1.854368097503255       9.999225478304218-1.9917862472603083E-4i
0.7420210678914594        -1.927472156282746       9.776377671404722-1.943947654149215E-4i
0.9389419337642696        -1.7658958194126329      9.999225478304117-1.9919296025602902E-4i
1.0012501679416137        -1.8043339473904214      9.82117936199797-1.9522937930998048E-4i
0.8767411072639045        -1.7975886712019693      9.999225478304156-1.9918788016635376E-4i
0.9387925961566466        -1.8386088952399318      9.809045546051296-1.9499989853215372E-4i
0.8134722586817302        -1.8270913727439153      9.99922547830418-1.991830966660139E-4i
0.874658631982468         -1.87037721656252        9.798121438295125-1.9479762486893332E-4i
0.8090597146689837        -1.9002396289060122      9.786528752585296-1.945808599643109E-4i
-1.797586906374097        0.8767447256940895       9.999225478300476-1.9954390843626423E-4i
-1.8671864481822569       0.8693850915045787       10.046694831200165-1.9766172204450659E-4i
-1.7658939826672406       0.9389453881774121       9.999225478300522-1.995521433275335E-4i
-1.8376690011825587       0.9360451602881051       10.053606469177554-1.9753145421461834E-4i
-1.732049554120839        1.0000021710325444       9.999225478300533-1.9956028906397606E-4i
-1.80651341692114         1.000478649597597        10.061073451975853-1.9739013264161504E-4i
-1.6960948514756706       1.0598406742514284       9.99922547830055-1.9956833771207804E-4i
-1.7715217865140969       1.0631894340639898       10.06746892493785-1.9729506886373188E-4i
1.1183845735992872        -1.6580759770092384      9.999225478304-1.9920983181080708E-4i
1.1235519732341643        -1.7287248834237303      9.84426801279949-1.9566457589775872E-4i
1.1755692772563593        -1.6180348804555982      9.999225478303941-1.9921595132435597E-4i
1.1826837740537655        -1.688762741745858       9.853088795485762-1.9582191306082461E-4i
1.2410247463643813        -1.6479511714509527      9.858714332198888-1.9590459627060147E-4i
1.2313213953763789        -1.576022722326162       9.9992254783039-1.9922229548674324E-4i
1.2986219670247061        -1.605678795519198       9.862647635107313-1.9594476794848655E-4i
1.2855738451268326        -1.5320900393664239      9.999225478303888-1.9922885116366862E-4i
-1.6580737714092937       1.118387843533969        9.99922547830058-1.9957628098312555E-4i
-1.7332729650284489       1.1244674345979522       10.073178514864418-1.9722685024012096E-4i
-1.6180326317361413       1.1755723723518754       9.99922547830058-1.9958411024943634E-4i
-1.6916889512575732       1.1835290444808584       10.077383301467092-1.9720563105923115E-4i
-1.576020178323563        1.231324651550908        9.999225478300565-1.9959181650173197E-4i
-1.6458803740231331       1.2409904782598664       10.079361408371021-1.9724824223921945E-4i
-1.5320875082073617       1.2855768616442023       9.999225478300552-1.9959939032785886E-4i
-1.6014787825378736       1.2996769685736038       10.087201503259605-1.9711836989162038E-4i
-1.4862882078875281       1.3382628154045375       9.999225478300554-1.9960682185393938E-4i
-1.5555573581321056       1.3535678401071294       10.092833181299346-1.970493432492702E-4i
-1.4386781865610048       1.3893182052767965       9.999225478300547-1.9961410074911877E-4i
-1.5067904669382566       1.4051062205501965       10.096668238652155-1.9702784690101653E-4i
-1.3893153786737424       1.4386809161800385       9.999225478300563-1.9962121624084414E-4i
-1.4577983317810166       1.4573625080395516       10.105233351217988-1.968819150135331E-4i
-1.3382598930887217       1.4862908391530114       9.9992254783006-1.996281570619846E-4i
-1.4067178136079672       1.5051667676027338       10.110188373713996-1.9682808455898806E-4i
1.3546198215446106        -1.5599657916109144      9.86918793238093-1.9604477712323448E-4i
1.3382598930887217        -1.4862908391530114      9.99922547830387-1.99235605527721E-4i
1.4081626295330159        -1.5108405140015693      9.878648641028347-1.9621675362915589E-4i
1.3893153786737424        -1.4386809161800385      9.999225478303849-1.9924254631780604E-4i
1.4386781865610048        -1.3893182052767965      9.999225478303819-1.9924966177927884E-4i
1.4587948680407357        -1.4586150874612         9.890493561552136-1.9645280325239183E-4i
1.4862882078875281        -1.3382628154045375      9.999225478303785-1.99256940646529E-4i
1.5091747243078597        -1.4055656635000908      9.898631471869829-1.965977336977756E-4i
-1.3509695781981264       1.5529603235545317       10.114171605863588-1.9679972019527974E-4i
-1.2855738451268326       1.5320900393664239       9.99922547830059-1.99634911457924E-4i
-1.2313213953763789       1.576022722326162        9.999225478300591-1.9964146716799563E-4i
-1.2973812989622218       1.6013012894963756       10.126964191056155-1.9655434381395692E-4i
-1.1755692772563593       1.6180348804555982       9.999225478300595-1.9964781136372852E-4i
-1.2414989983382099       1.645313315921526        10.135510443580849-1.9641356085625455E-4i
-1.1183845735992872       1.6580759770092384       9.999225478300595-1.9965393091073743E-4i
-1.1838184108099619       1.6874829529068613       10.144238547068626-1.962692454871133E-4i
-1.059837212578299        1.6960970145702927       9.999225478300596-1.9965981209290468E-4i
-1.124522626869659        1.7279413785533049       10.153714380381443-1.9610813398375116E-4i
-0.9999985355119151       1.7320516530906418       9.999225478300604-1.9966544080951134E-4i
-1.0621542345788608       1.7653498618816745       10.159200188386214-1.9603827957316168E-4i
-0.9389419337642696       1.7658958194126329       9.999225478300632-1.9967080256586318E-4i
-0.9997999229420774       1.8041944078282475       10.17515143383797-1.957321672755842E-4i
-0.8767411072639045       1.7975886712019693       9.999225478300643-1.996758826893458E-4i
-0.9370262707237496       1.8400613690154703       10.191140401531014-1.9542696417475152E-4i
1.5320875082073617        -1.2855768616442023      9.999225478303757-1.992643721460359E-4i
1.5580035553255058        -1.3516563592028505      9.905016431371543-1.9669844092082387E-4i
1.576020178323563         -1.231324651550908       9.999225478303723-1.992719459457486E-4i
1.6035294192144827        -1.2960053991860914      9.912601390098777-1.9683469005704138E-4i
1.6580737714092937        -1.118387843533969       9.99922547830359-1.9928748141502992E-4i
1.6180326317361413        -1.1755723723518754      9.99922547830366-1.9927965217283528E-4i
1.689976389961963         -1.1829547027324494      9.92308820374862-1.969806630900411E-4i
1.6478795968189932        -1.2397819634829228      9.91815043080603-1.9691605958795967E-4i
1.7652380540276953        -1.0612567209859327      9.93736054996288-1.972525379353642E-4i
1.732049554120839         -1.0000021710325444      9.999225478303476-1.9930347328806134E-4i
1.6960948514756706        -1.0598406742514284      9.999225478303526-1.9929542466269468E-4i
1.7275840133696683        -1.1230081173307316      9.931265325274444-1.9714717921057376E-4i
-0.8134722586817302       1.8270913727439153       9.999225478300641-1.9968066622295575E-4i
-0.8721801199490229       1.871653642343861        10.201044991605071-1.9525671942155072E-4i
-0.7492122255824168       1.854368097503255        9.999225478300636-1.9968513819544262E-4i
-0.8061656057947213       1.8997083188826753       10.207054937319471-1.9516948135217644E-4i
1.7658939826672406        -0.9389453881774121      9.999225478303414-1.993116190027251E-4i
1.8047214391601623        -1.0001603185977281      9.938944830138894-1.9720522906860704E-4i
1.8390331954065573        -0.9374318297428378      9.943217778886252-1.9724724053259328E-4i
1.797586906374097         -0.8767447256940895      9.999225478303327-1.9931985387341752E-4i
1.8679685748513462        -0.872540972484351       9.949993528425125-1.9738734489017866E-4i
1.8270897678796263        -0.8134758632618257      9.999225478303224-1.9932817029306947E-4i
1.8955877215470416        -0.8047899919088299      9.956291164668336-1.9751681812283346E-4i
1.8543666708332327        -0.7492157567102231      9.999225478303151-1.993365609440049E-4i
1.8793843415870752        -0.6840427593340318      9.999225478303066-1.9934501874611455E-4i
1.925909277433143         -0.738743921182038       9.958386356451188-1.974691739280749E-4i
1.9517794461019449        -0.6725477465481499      9.961685338894762-1.974694620562143E-4i
1.9021122442932346        -0.6180364148735531      9.999225478302982-1.9935353684607672E-4i
1.9732733720156386        -0.6045395135260395      9.966245358220633-1.975313938426473E-4i
1.9225226650906264        -0.5512772462317256      9.999225478302908-1.9936210860889254E-4i
1.990712688708008         -0.5359580177387063      9.971297030267847-1.976323887945152E-4i
1.9405906891889022        -0.4838468528711764      9.999225478302845-1.9937072756968236E-4i
-0.6840392723252542       1.8793856107560087       9.999225478300657-1.9968928368866207E-4i
-0.7402245957109256       1.9243075740881934       10.210056628422883-1.951434917330671E-4i
-0.6180331244361026       1.9021133134226649       9.999225478300664-1.996930879980818E-4i
-0.6723657110523399       1.9502371135797452       10.223232710660717-1.9489723752193712E-4i
2.006319157163847         -0.4646863906845795      9.976085704524285-1.9772754510569658E-4i
1.9562945823640023        -0.41582629427833645     9.999225478302794-1.9937938760355325E-4i
-0.5512739300701226       1.922523615986301        9.999225478300646-1.996965368783752E-4i
-0.6030625887483803       1.9723310545509891       10.230795023603909-1.9476935152862976E-4i
-0.48384305487816526      1.9405916361373317       9.999225478300632-1.9969961669502977E-4i
-0.5334860556577448       1.992852395200964        10.241425402470817-1.9457373144901718E-4i
-0.415822716831225        1.956295342776008        9.999225478300598-1.9970231466308024E-4i
-0.4644753837489384       2.0105217957854893       10.251023857267093-1.943971501020274E-4i
-0.34729575105187127      1.969615612575539        9.999225478300566-1.997046190834547E-4i
-0.3954873486789302       2.0242736471911864       10.254323686760237-1.9434993017682577E-4i
2.0235357707189445        -0.3933677004320386      9.979205517966834-1.9770526990575782E-4i
1.9696151759501856        -0.347298227272644       9.999225478302746-1.993880826175201E-4i
2.036323965698533         -0.323266505951865       9.982797324733466-1.9772151263637504E-4i
1.9805360863324843        -0.2783465658757216      9.999225478302687-1.9939680656076586E-4i
2.043513870108308         -0.2500552185075749      9.987197483698898-1.9782654025325957E-4i
1.989043884471589         -0.20905603470402634     9.999225478302618-1.9940555344734196E-4i
1.9951281897439634        -0.13951167151523933     9.999225478302543-1.994143173870591E-4i
2.054054925607082         -0.17864915948081642     9.990247367858489-1.9776576502499791E-4i
2.058983726415915         -0.10816115054482833     9.993804063210307-1.9778110190036584E-4i
1.9987816782866166        -0.06979829901750112     9.999225478302465-1.994230926115975E-4i
2.059415243242203         -0.03591004334348845     9.997483703192623-1.9784793938993595E-4i
2                         0                        9.999225478302419-1.9943187366982629E-4i
-0.27834573686787656      1.9805362028419167       9.999225478300577-1.9970651956561418E-4i
-0.32575057985177863      2.036027703499538        10.257863303795043-1.942943252501301E-4i
-0.2090566021308754       1.9890438248327997       9.999225478300618-1.9970800725576475E-4i
-0.25517341423343387      2.047147926274189        10.267443115636516-1.941093625092344E-4i
-0.1395126868041629       1.9951281187484384       9.99922547830066-1.997090750335496E-4i
-0.1840987360257056       2.0561416291936903       10.277344317347472-1.9391466894814514E-4i
-0.06979881898713512      1.9987816601289903       9.999225478300716-1.99709717677055E-4i
-0.11214551660460499      2.061701543293234        10.281849213067494-1.938289685033555E-4i
0                         2                        9.99922547830074-1.9970993218780317E-4i
-0.03976730563629986      2.0643554998348783       10.283299136932364-1.9380298017191962E-4i
2.0617010568831495        0.03591883791162718      10.00102295236889-1.9779696088970407E-4i
1.9987816571764048        0.06979890353827216      9.999225478302366-1.9944065481082712E-4i
2.0586182354489306        0.10739985915982336      10.004567202838828-1.978172746949394E-4i
1.9951281070758407        0.1395128537303027       9.999225478302314-1.9944943012741807E-4i
1.9890437986178802        0.2090568515494133       9.999225478302233-1.994581940533153E-4i
2.0525139081125765        0.17957525312882533      10.00803950921802-1.978462636844506E-4i
0.06979835037280635       1.998781676493267        9.999225478300794-1.9970971699724118E-4i
0.03263772172402731       2.0640034433027687       10.281306013298716-1.9384460914939576E-4i
0.13951170843000513       1.9951281871626547       9.999225478300865-1.997090736837879E-4i
0.10514514619530949       2.0611942473868345       10.278283462084291-1.9390370257800038E-4i
0.2090559915083712        1.9890438890116153       9.999225478300902-1.9970800523287573E-4i
0.17749342299779683       2.0557515542786557       10.273529613925719-1.939949884161245E-4i
0.27834637793517847       1.9805361127458312       9.999225478300918-1.9970651685036797E-4i
0.25083444797445276       2.046353345227109        10.262157127815144-1.9422041969706155E-4i
1.9805361563521657        0.2783460676600089       9.999225478302174-1.9946694081919258E-4i
2.0464233158102023        0.2531799083256972       10.012044780210987-1.977995331215674E-4i
1.9696155403119548        0.34729616087951104      9.999225478302126-1.9947566462074216E-4i
2.0357607858196034        0.32432611246836757      10.015602487014334-1.9780852593945093E-4i
1.9562952390095711        0.4158232050144448       9.99922547830209-1.9948435957399166E-4i
2.0241127967367           0.3941605596708084       10.019502696004418-1.9777934019454414E-4i
0.3472978314677468        1.9696152457416145       9.999225478300925-1.9970461566588965E-4i
0.323409219281446         2.0381884540069497       10.265335825477791-1.9413862494117572E-4i
0.4158256290562705        1.9562947237622343       9.999225478300941-1.9970231056028932E-4i
0.39389145918079643       2.0265293894881053       10.262174911834519-1.9418574747083784E-4i
1.9405914083110758        0.4838439686399288       9.999225478302055-1.9949301971573674E-4i
2.0090242077578497        0.46415654424640784      10.023260248636632-1.9776983811615212E-4i
1.9225233592980142        0.5512748252491477       9.999225478302021-1.9950163883039506E-4i
1.9907034128145258        0.5348600607377001       10.026956499842628-1.9776855720564273E-4i
1.9021130360965448        0.6180339779588043       9.999225478301994-1.99510210699313E-4i
1.972229337825232         0.6055845106379643       10.031920584000943-1.97694377777194E-4i
0.48384588019049757       1.9405909317068044       9.999225478300954-1.996996119539823E-4i
0.46237273539815          2.009318461322435        10.24476335291491-1.945295539703808E-4i
0.5512760236420917        1.9225230156638864       9.999225478301002-1.996965315463344E-4i
0.5343579826471558        1.9896531460035152       10.230379622890306-1.9480673886492864E-4i
1.8793852732012923        0.6840401997500617       9.999225478301986-1.9951872890434417E-4i
1.9502713395016649        0.6741214394221093       10.036352387868094-1.9765514288731727E-4i
0.6180350129143284        1.9021126998188056       9.999225478301058-1.9969308207503134E-4i
0.6035509746650302        1.971799135111372        10.229371166135193-1.9479931455072648E-4i
1.8543677404515986        0.7492131093169914       9.999225478301993-1.9952718682876317E-4i
1.9245236540772048        0.7410032867841227       10.039904465608934-1.9765874999048687E-4i
0.68404124634702          1.879384892270877        9.999225478301117-1.9968927717832976E-4i
0.6711974056580966        1.9512851405481753       10.225547865886568-1.9484834917621733E-4i
1.8270909486671019        0.8134732111746207       9.999225478302-1.9953557762565982E-4i
1.8965913726156642        0.8065778677579288       10.04338394707935-1.976605064171293E-4i
0.7492141990753098        1.8543673001603385       9.999225478301158-1.9968513112314813E-4i
0.7361898284398549        1.9251758045443226       10.208432088175714-1.9518055559778443E-4i
1.7975881572937051        0.8767421609329744       9.99922547830198-1.995438942162191E-4i
1.8684590859675463        0.8716571561932255       10.048439390167552-1.9759538126787196E-4i
0.8032386441419623        1.895260697455471        10.190312860589366-1.9553349753948394E-4i