% Model:              VLR_3_01V03.mph
% Version:            COMSOL 5.5.0.292
% Date:               Jun 7 2020, 21:18
% Dimension:          2
% Nodes:              4432
% Expressions:        1
% Description:        Electric potential
% Length unit:        cm
% x                       y                        V2 (V)
-1.956295342776008        -0.415822716831225       10.00018907957174-8.08498190752075E-5i
-1.969615612575539        -0.34729575105187127     10.000189079571745-8.086648698049214E-5i
-2.023137829916343        -0.3961956666361184      9.93836070542877-7.894710805138011E-5i
-1.854368097503255        -0.7492122255824168      10.000189079571804-8.076843347282122E-5i
-1.8972986142533392       -0.80528724052606        9.871645793813014-7.873205017655558E-5i
-1.8270913727439153       -0.8134722586817302      10.00018907957182-8.075267324845993E-5i
-1.9405916361373317       -0.48384305487816526     10.000189079571767-8.083325752053577E-5i
-2.00905639493833         -0.46580994291348327     9.926346405666111-7.889102762654741E-5i
-1.8793856107560087       -0.6840392723252542      10.000189079571793-8.078439015145276E-5i
-1.925168192350494        -0.739268154802185       9.88087264098609-7.874043218489002E-5i
-1.922523615986301        -0.5512739300701226      10.00018907957178-8.081682019460792E-5i
-1.9928491855136707       -0.5341101785692813      9.914085722786945-7.883091292281207E-5i
-1.9021133134226649       -0.6180331244361026      10.000189079571792-8.080052506378714E-5i
-1.950413520887485        -0.6714237363066422      9.891586586711576-7.876664166001464E-5i
-1.9729531617135447       -0.6025155047589551      9.903012914028663-7.88022060629536E-5i
-1.8688848326865217       -0.8707481714413231      9.85886985462808-7.866432671327531E-5i
-1.7975886712019693       -0.8767411072639045      10.000189079571808-8.07371276637852E-5i
-1.8385041120374854       -0.935175224052863       9.845261028284142-7.858572329154952E-5i
-1.7658958194126329       -0.9389419337642696      10.000189079571788-8.07218148924633E-5i
-1.7650583835454803       -1.0597450853252617      9.832723953567074-7.861760515797328E-5i
-1.6960970145702927       -1.059837212578299       10.00018907957181-8.069196098020947E-5i
-1.7320516530906418       -0.9999985355119151      10.000189079571804-8.070675329803949E-5i
-1.8051655804949334       -0.997886432570694       9.833864780868721-7.853726876711734E-5i
-1.6180348804555982       -1.1755692772563593      10.000189079571816-8.066325749566457E-5i
-1.6580759770092384       -1.1183845735992872      10.000189079571816-8.067745630881842E-5i
-1.690948918601523        -1.1843444091833661      9.792582209753926-7.830461068588327E-5i
-1.728614172694497        -1.1254941175696214      9.809378452131895-7.842188917750791E-5i
-1.5320900393664239       -1.2855738451268326      10.000189079571904-8.063584987547154E-5i
-1.576022722326162        -1.2313213953763789      10.000189079571845-8.06493827437034E-5i
-1.600722411981213        -1.2971217066533818      9.783455203333412-7.83409858544018E-5i
-1.6482548082787312       -1.2408707649733162      9.785304376710867-7.829537684953166E-5i
-1.4862908391530114       -1.3382598930887217      10.00018907957197-8.062267693450456E-5i
-1.5565701842810087       -1.3534519441991417      9.763600949732997-7.819098764737618E-5i
-1.510203769161652        -1.4069821186119338      9.747249941993006-7.80784862226227E-5i
-1.4386809161800385       -1.3893153786737424      10.000189079572033-8.060988162086967E-5i
-1.4592667418604286       -1.457099072362988       9.743568928394083-7.809094217130458E-5i
-1.3893182052767965       -1.4386781865610048      10.0001890795721-8.059748139528892E-5i
-1.4048082713595262       -1.506403882135183       9.742633908831303-7.812549268948627E-5i
-1.3382628154045375       -1.4862882078875281      10.00018907957215-8.058549346457186E-5i
-1.2855768616442023       -1.5320875082073617      10.000189079572179-8.057393470988998E-5i
-1.3520179672346089       -1.556843369245873       9.722637585758003-7.797495592770839E-5i
-1.2981298080571584       -1.6029218799290263      9.709343089945689-7.788639330996208E-5i
-1.231324651550908        -1.576020178323563       10.000189079572216-8.056282169806879E-5i
-1.9805362028419167       -0.27834573686787656     10.000189079571774-8.088324338665826E-5i
-2.0360381191995547       -0.3254620556540812      9.949306505768165-7.896720593384093E-5i
-1.9890438248327997       -0.2090566021308754      10.000189079571786-8.090007053740086E-5i
-2.0482178988198045       -0.25354049595007255     9.959456962550568-7.893556914804967E-5i
-1.9951281187484384       -0.1395126868041629      10.00018907957181-8.091695072202092E-5i
-2.058460650102993        -0.180619128069933       9.970142197726693-7.888527568077664E-5i
-1.9987816601289903       -0.06979881898713512     10.000189079571859-8.093386621289727E-5i
-2.0640518142416124       -0.10821936258390591     9.982078626762194-7.889207609425941E-5i
-2                        0                        10.000189079571907-8.095079961848211E-5i
-2.063747282469154        -0.03726118707796482     9.994209513272194-7.899472998264967E-5i
-1.9987816782866166       0.06979829901750112      10.000189079571948-8.096773288932999E-5i
-2.0598592614494073       0.03450364079635532      10.005411049117832-7.912879259069283E-5i
-1.9951281897439634       0.13951167151523933      10.000189079571982-8.098464823534626E-5i
-2.057394311352236        0.10832765803823481      10.016606520259204-7.913987470386983E-5i
-1.989043884471589        0.20905603470402634      10.000189079572023-8.10015284887644E-5i
-2.0546475411072262       0.17981749096847885      10.028448425736032-7.908270561322508E-5i
-1.9805360863324843       0.2783465658757216       10.000189079572044-8.101835592331745E-5i
-2.0468157155033944       0.2503052459210826       10.039333338186239-7.910363518185476E-5i
-1.8543666708332327       0.7492157567102231       10.000189079572229-8.113316572369614E-5i
-1.8270897678796263       0.8134758632618257       10.000189079572241-8.11489258092117E-5i
-1.8996368285392806       0.8050031579631608       10.132773363675021-7.903021985064292E-5i
-1.9021122442932346       0.6180364148735531       10.000189079572172-8.110107436047124E-5i
-1.8793843415870752       0.6840427593340318       10.000189079572207-8.111720918292183E-5i
-1.949017370050316        0.669610080916595        10.105345751617191-7.913154173749029E-5i
-1.9241114996757156       0.7378868395185133       10.11657034772083-7.91232671067002E-5i
-1.9225226650906264       0.5512772462317256       10.000189079572134-8.108477936042701E-5i
-1.9728151976544908       0.6028384720011086       10.097372691463375-7.90756594323107E-5i
-1.9696151759501856       0.347298227272644        10.000189079572042-8.103511266038106E-5i
-2.036628191136948        0.3200218927635492       10.05001129708988-7.912221699302688E-5i
-1.9562945823640023       0.41582629427833645      10.000189079572053-8.105178075127822E-5i
-2.0248492232760493       0.39076674395864663      10.06177137558125-7.91064870627057E-5i
-1.9405906891889022       0.4838468528711764       10.00018907957209-8.106834226284594E-5i
-2.008618705094171        0.4623649992919381       10.072132950586571-7.913881669769186E-5i
-1.9922964337224716       0.5336153621383626       10.085359471554781-7.9092844773227E-5i
-1.1755723723518754       -1.6180326317361413      10.000189079572245-8.055217057849732E-5i
-1.2392943931405167       -1.6454115608973374      9.712017365108307-7.794236876220664E-5i
-1.118387843533969        -1.6580737714092937      10.000189079572277-8.054199700204998E-5i
-1.1825005107947921       -1.6898021206996752      9.690069495890148-7.777258802053523E-5i
-0.8040551126541726       -1.8950962378554492      9.660979944615988-7.76298940270502E-5i
-0.7492157567102231       -1.8543666708332327      10.000189079572435-8.049179244415684E-5i
-0.8134758632618257       -1.8270897678796263      10.000189079572422-8.049880304508868E-5i
-0.8767447256940895       -1.797586906374097       10.000189079572419-8.050637302234144E-5i
-0.87067326345749         -1.867869268101096       9.65557218183213-7.757154115484989E-5i
-0.9389453881774121       -1.7658939826672406      10.0001890795724-8.051449043044255E-5i
-0.9343610830036986       -1.8367490800563737      9.663569321934448-7.762522886066394E-5i
-1.0598406742514284       -1.6960948514756706      10.000189079572317-8.053231613376059E-5i
-1.123231825170988        -1.7304943047362593      9.67748095875069-7.768639661626609E-5i
-0.9981953314891502       -1.8007868288216229      9.681462432807315-7.776239515667305E-5i
-1.0000021710325444       -1.732049554120839       10.000189079572365-8.052314259435282E-5i
-1.0618119145261773       -1.767076680940096       9.676166037911884-7.7697308436075E-5i
-0.2783465658757216       -1.9805360863324843      10.000189079572676-8.045921283191818E-5i
-0.2512212145888999       -2.0450561444781608      9.613015302926987-7.728134912009665E-5i
-0.20905603470402634      -1.989043884471589       10.00018907957273-8.045700669976698E-5i
-0.6840427593340318       -1.8793843415870752      10.00018907957244-8.048535241344172E-5i
-0.7368560310831845       -1.925095985086776       9.638769460927056-7.745396133195639E-5i
-0.6718432756933781       -1.9510350961252636      9.619887764238422-7.730547563553591E-5i
-0.6180364148735531       -1.9021122442932346      10.000189079572447-8.047949332760706E-5i
-0.5512772462317256       -1.9225226650906264      10.000189079572468-8.047422470426804E-5i
-0.6026064907246679       -1.9714399683660597      9.625907400658635-7.736412346221007E-5i
-0.347298227272644        -1.9696151759501856      10.000189079572603-8.046204296942824E-5i
-0.3234141254208877       -2.0383779442944565      9.594047128027954-7.712261224771472E-5i
-0.41582629427833645      -1.9562945823640023      10.000189079572538-8.04654923448649E-5i
-0.3948469600506446       -2.0285073464898105      9.580705282314087-7.7008666935247E-5i
-0.4838468528711764       -1.9405906891889022      10.000189079572495-8.046955517138779E-5i
-0.4651888280440699       -2.0129888871072437      9.588253240825791-7.706555200834574E-5i
-0.5331457300996127       -1.9930188852916153      9.61091398386621-7.724683031311258E-5i
-1.797586906374097        0.8767447256940895       10.0001890795723-8.116447123088522E-5i
-1.8716961082319135       0.8704916037210775       10.1467734379342-7.89778173119412E-5i
-1.7658939826672406       0.9389453881774121       10.000189079572355-8.117978378605447E-5i
-1.839844047661284        0.9349629579169196       10.157663921909922-7.897225918892652E-5i
-1.732049554120839        1.0000021710325444       10.000189079572396-8.11948452395898E-5i
-1.8047002643874142       0.9988703532735242       10.16687630048335-7.898675791829996E-5i
-1.6960948514756706       1.0598406742514284       10.000189079572426-8.120963732261627E-5i
-1.7685338144276215       1.0622774382078728       10.179741143665494-7.894933202108806E-5i
-1.6580737714092937       1.118387843533969        10.000189079572461-8.122414174742901E-5i
-1.7308875521456484       1.1240204814739687       10.193898399989061-7.889384940830967E-5i
-1.6180326317361413       1.1755723723518754       10.000189079572475-8.123834031157407E-5i
-1.6909708837923496       1.1842979016060762       10.207763106899293-7.884131122487885E-5i
-1.576020178323563        1.231324651550908        10.000189079572484-8.12522148943176E-5i
-1.6489256939426988       1.242711145303325        10.220757953769935-7.879687481644343E-5i
-1.5320875082073617       1.2855768616442023       10.000189079572479-8.12657474919049E-5i
-1.6044931455605298       1.2988893162079005       10.231064890198551-7.877886931048792E-5i
-1.4862882078875281       1.3382628154045375       10.000189079572467-8.127892019472485E-5i
-1.5579201163389373       1.3529244665757882       10.239075033883745-7.878071444441678E-5i
-1.4386781865610048       1.3893182052767965       10.000189079572431-8.1291715268917E-5i
-1.5099641083895345       1.4043239326002528       10.24512596391164-7.879657390155644E-5i
-1.3893153786737424       1.4386809161800385       10.000189079572381-8.13041152561101E-5i
-1.460287775562729        1.4548272827409257       10.25287502699346-7.879097432843378E-5i
-1.3382598930887217       1.4862908391530114       10.000189079572351-8.13161029513093E-5i
-1.409280503092728        1.5050337212905998       10.265824983801735-7.873146214654442E-5i
-1.2855738451268326       1.5320900393664239       10.00018907957234-8.132766147480734E-5i
-1.3581601269940482       1.5544373621998309       10.28659108931272-7.859511749572691E-5i
-1.2313213953763789       1.576022722326162        10.000189079572316-8.133877428843925E-5i
-1.3038525914123082       1.601347339490853        10.301122639064479-7.851815865306631E-5i
-1.1755692772563593       1.6180348804555982       10.000189079572314-8.13494251396884E-5i
-1.2470965807022718       1.646265404583826        10.313016309905203-7.846406383019962E-5i
-1.1183845735992872       1.6580759770092384       10.000189079572325-8.135959851903306E-5i
-1.189169715261724        1.6898851959719678       10.328581690760359-7.837401344805904E-5i
-1.059837212578299        1.6960970145702927       10.00018907957234-8.13692792007053E-5i
-1.129033582068835        1.731358970745779        10.341858683480142-7.830293473675937E-5i
-0.9999985355119151       1.7320516530906418       10.00018907957235-8.137845255978543E-5i
-1.0675830467102165       1.7720374625951496       10.361293064030905-7.817520704602486E-5i
-0.9389419337642696       1.7658958194126329       10.000189079572348-8.138710450344635E-5i
-1.0037970578770177       1.8092359257066308       10.372552059787147-7.811778305832895E-5i
-0.8767411072639045       1.7975886712019693       10.00018907957235-8.139522175386773E-5i
-0.9385948784732691       1.8420746403762729       10.372985749036618-7.815111941127392E-5i
-0.13951167151523933      -1.9951281897439634      10.000189079572756-8.045542828217848E-5i
-0.17903346786486735      -2.0530321023257283      9.608524193810766-7.724659855565449E-5i
-0.10808764528853548      -2.0594009496915087      9.598225220838522-7.716360331752786E-5i
-0.06979829901750112      -1.9987816782866166      10.000189079572785-8.045448021704275E-5i
-0.03691493594937122      -2.0612444791275633      9.601758695328078-7.719321511529268E-5i
0                         -2                       10.000189079572825-8.045416380699053E-5i
0.0348493993420934        -2.059078713727917       9.6157917201571-7.730807853821712E-5i
0.06979881898713512       -1.9987816601289903      10.000189079572877-8.045448033032678E-5i
0.10740480299486739       -2.0591098151695113      9.600293620526784-7.718054810853358E-5i
0.1395126868041629        -1.9951281187484384      10.00018907957292-8.04554285179069E-5i
0.27834573686787656       -1.9805362028419167      10.000189079573035-8.04592132389321E-5i
0.2090566021308754        -1.9890438248327997      10.000189079572968-8.045700704162127E-5i
0.25185215750968315       -2.0445141999991776      9.615946914659034-7.730537903728621E-5i
0.1787807471957722        -2.0545056813654146      9.59934091520937-7.717135683947989E-5i
0.34729575105187127       -1.969615612575539       10.000189079573115-8.046204340588493E-5i
0.32466587178630263       -2.0362312937820177      9.60616394920761-7.722211696776485E-5i
0.415822716831225         -1.956295342776008       10.000189079573174-8.046549280814391E-5i
0.3953844411212363        -2.023827675268507       9.60865339792466-7.723876142663434E-5i
0.48384305487816526       -1.9405916361373317      10.000189079573213-8.046955569431418E-5i
0.46536619646808663       -2.0098771873228913      9.60668816820165-7.72177183050866E-5i
0.5512739300701226        -1.922523615986301       10.000189079573238-8.047422533623665E-5i
0.5348024484722363        -1.9931729400962443      9.60751299791288-7.721851047012614E-5i
0.6026403380730897        -1.9716498599342824      9.624644683692361-7.735362088691053E-5i
0.6180331244361026        -1.9021133134226649      10.000189079573264-8.047949403889756E-5i
0.6702237374459277        -1.947139449029051       9.644740037088011-7.751309528637275E-5i
0.6840392723252542        -1.8793856107560087      10.0001890795733-8.048535317943821E-5i
0.7492122255824168        -1.854368097503255       10.000189079573337-8.049179328092974E-5i
0.7417652184780168        -1.9232763552225733      9.638883414756535-7.74541560974095E-5i
0.8134722586817302        -1.8270913727439153      10.000189079573394-8.049880393997672E-5i
0.8071532734146785        -1.9004098874802118      9.626294599761023-7.73367881485943E-5i
0.8722863385453167        -1.8713849977898833      9.633993968180866-7.73880406341581E-5i
0.8767411072639045        -1.7975886712019693      10.000189079573456-8.050637397944725E-5i
0.935215068865772         -1.837794816459582       9.656399765846585-7.756372133686642E-5i
0.9389419337642696        -1.7658958194126329      10.00018907957351-8.051449147108507E-5i
1.059837212578299         -1.6960970145702927      10.000189079573634-8.053231728940308E-5i
0.9999985355119151        -1.7320516530906418      10.000189079573566-8.052314366640733E-5i
1.061649356781321         -1.7666686141170518      9.67842388308406-7.77170041326764E-5i
0.9971869795737468        -1.80153673551037        9.680430016632956-7.775376591334444E-5i
-0.8134722586817302       1.8270913727439153       10.000189079572344-8.140279156560067E-5i
-0.8730606534799807       1.870871451068813        10.365504207211993-7.824795939665514E-5i
-0.7492122255824168       1.854368097503255        10.000189079572358-8.140980201474537E-5i
-0.807874206658483        1.8969368661012977       10.357288337965414-7.834606732668178E-5i
-0.6840392723252542       1.8793856107560087       10.00018907957239-8.141624191865101E-5i
-0.7419156813877431       1.9244192292418112       10.368009674602682-7.827929218926253E-5i
-0.6180331244361026       1.9021133134226649       10.000189079572449-8.142210088097153E-5i
-0.6732608049958331       1.9487389286057915       10.370219222316111-7.828297019448015E-5i
1.1220939384811102        -1.7308077968116686      9.679130728459123-7.770133990520575E-5i
1.1183845735992872        -1.6580759770092384      10.000189079573715-8.054199824430411E-5i
1.1813532635579773        -1.687773474097653       9.701449346717581-7.787429860710904E-5i
1.1755692772563593        -1.6180348804555982      10.000189079573783-8.055217190481473E-5i
1.2313213953763789        -1.576022722326162       10.000189079573834-8.056282304529639E-5i
1.242743297522241         -1.6482120228172308      9.691750092146867-7.775800951810627E-5i
1.3002090544066358        -1.6063167829113898      9.691233645675892-7.771969028999527E-5i
1.2855738451268326        -1.5320900393664239      10.000189079573886-8.057393615202064E-5i
-0.5512739300701226       1.922523615986301        10.0001890795725-8.142736941988343E-5i
-0.6041197571180132       1.9715625339239036       10.377709419467811-7.823932346623007E-5i
-0.48384305487816526      1.9405916361373317       10.000189079572555-8.143203891552697E-5i
-0.5347389625910429       1.9918754593396097       10.385120979501908-7.819397841521499E-5i
-0.415822716831225        1.956295342776008        10.000189079572621-8.1436101675639E-5i
-0.4651543127263211       2.0089786180743294       10.388001567773388-7.818433793624963E-5i
-0.34729575105187127      1.969615612575539        10.00018907957267-8.14395509708239E-5i
-0.39556377374369717      2.0249212098926974       10.39859479819097-7.810797469821644E-5i
1.3542342463115105        -1.5591224506547532      9.708672690116229-7.784382636298767E-5i
1.3382598930887217        -1.4862908391530114      10.000189079573905-8.058549497170753E-5i
1.3893153786737424        -1.4386809161800385      10.000189079573929-8.059748296412797E-5i
1.4059338835722486        -1.507296787982479       9.736637647557815-7.806795952546875E-5i
1.4386781865610048        -1.3893182052767965      10.000189079573973-8.060988324877456E-5i
1.4594128054331625        -1.4572604464011027      9.742685047007372-7.808228493801248E-5i
1.4862882078875281        -1.3382628154045375      10.000189079573996-8.062267862013895E-5i
1.509733464658151         -1.4063737871465367      9.750221068852454-7.810819123347397E-5i
-0.27834573686787656      1.9805362028419167       10.000189079572722-8.144238104983556E-5i
-0.3243506508729814       2.0392517324928856       10.412605737140389-7.800142805451898E-5i
-0.2090566021308754       1.9890438248327997       10.00018907957278-8.144458718159194E-5i
-0.25215473175750297      2.0513349078913383       10.427358151361902-7.788693943661812E-5i
-0.1395126868041629       1.9951281187484384       10.000189079572827-8.144616566027099E-5i
-0.17987688225052675      2.059089037168616        10.430537007122952-7.786674846804404E-5i
-0.06979881898713512      1.9987816601289903       10.000189079572882-8.144711382347982E-5i
-0.10862910433262918      2.0606695635997476       10.410372094602645-7.803833532108095E-5i
0                         2                        10.000189079572943-8.144743034510536E-5i
-0.03738217954354078      2.059014316479759        10.384436428871686-7.825570863835919E-5i
1.5320875082073617        -1.2855768616442023      10.000189079573998-8.063585161773762E-5i
1.5564055975042759        -1.3526299631580054      9.766147420092862-7.821681839384724E-5i
1.576020178323563         -1.231324651550908       10.000189079573996-8.064938450549761E-5i
1.6015332044314359        -1.2963682700885981      9.783073353774308-7.833600972754101E-5i
1.6180326317361413        -1.1755723723518754      10.000189079573978-8.06632593729412E-5i
1.692379651312142         -1.1858011601563798      9.786157885318234-7.82318228317653E-5i
1.6580737714092937        -1.118387843533969       10.000189079573953-8.06774582155415E-5i
1.6477956616231044        -1.241620634964727       9.784881395659498-7.829155602959551E-5i
1.732049554120839         -1.0000021710325444      10.000189079573895-8.070675525652978E-5i
1.6960948514756706        -1.0598406742514284      10.000189079573925-8.069196291122115E-5i
1.7726841040885548        -1.0636556229077985      9.808853855759098-7.832012367579065E-5i
1.7342034229704946        -1.1264206925729985      9.794247163563947-7.823966675340945E-5i
0.06979835037280635       1.998781676493267        10.000189079573023-8.144711395068314E-5i
0.03596091932116905       2.0614953464715353       10.400103421215405-7.812561594126833E-5i
0.13951170843000513       1.9951281871626547       10.0001890795731-8.144616592197891E-5i
0.10737915714889212       2.0609710837551147       10.411890737423747-7.802577204152713E-5i
0.2090559915083712        1.9890438890116153       10.000189079573156-8.144458756128329E-5i
0.17906373060183364       2.0559361155212694       10.41021185874011-7.803577609395766E-5i
0.27834637793517847       1.9805361127458312       10.0001890795732-8.144238150909604E-5i
0.25042068613342733       2.0475583531712207       10.402446688662495-7.809443686203388E-5i
1.7658939826672406        -0.9389453881774121      10.000189079573856-8.072181696130128E-5i
1.8072004894713296        -0.9990447130515938      9.827742435402866-7.845714750759739E-5i
1.797586906374097         -0.8767447256940895      10.000189079573788-8.073712975479707E-5i
1.8384784530682003        -0.9341093303511867      9.846646153719341-7.860341767945658E-5i
1.8270897678796263        -0.8134758632618257      10.000189079573708-8.075267540198082E-5i
1.8688366974920996        -0.8692816715477907      9.860572261885414-7.868716741311844E-5i
1.8543666708332327        -0.7492157567102231      10.000189079573653-8.07684356996034E-5i
1.8979873546747188        -0.8044490148866932      9.871178471445369-7.872268718954792E-5i
0.3472978314677468        1.9696152457416145       10.000189079573266-8.143955147807821E-5i
0.3200951302448457        2.0361247924477084       10.389247669763263-7.81966582215686E-5i
0.4158256290562705        1.9562947237622343       10.000189079573346-8.14361022367771E-5i
0.3907409249876821        2.0231825968519117       10.382494018540774-7.82431907772753E-5i
0.48384588019049757       1.9405909317068044       10.000189079573383-8.143203957066494E-5i
0.46137295155493036       2.0074744789089847       10.373944404823726-7.830271900648358E-5i
0.5512760236420917        1.9225230156638864       10.000189079573447-8.142737021489419E-5i
0.5323009768625087        1.9897655315421277       10.369010378033993-7.832976590225777E-5i
0.6180350129143284        1.9021126998188056       10.000189079573532-8.142210178615319E-5i
0.6034181535121979        1.9729724815998126       10.384642380842914-7.818111806986338E-5i
1.925317200830993         -0.7392830270526347      9.88060888986058-7.873580860623702E-5i
1.8793843415870752        -0.6840427593340318      10.00018907957362-8.078439244003134E-5i
1.9489500709520862        -0.6721349578572323      9.89337083716275-7.880261430738957E-5i
1.9021122442932346        -0.6180364148735531      10.000189079573586-8.080052744744485E-5i
0.68404124634702          1.879384892270877        10.00018907957361-8.141624291085317E-5i
0.6722450128135781        1.9522167138389137       10.387840924159669-7.813427951498601E-5i
0.7492141990753098        1.8543673001603385       10.000189079573651-8.140980310265059E-5i
0.7382914378570836        1.9260403684375493       10.369609192201269-7.826697545116517E-5i
0.8134743253572835        1.8270904526006677       10.000189079573657-8.140279273801331E-5i
0.8041561005072426        1.896598386372231        10.34754948316723-7.843068851445173E-5i
1.9225226650906264        -0.5512772462317256      10.000189079573554-8.081682261486813E-5i
1.970464832825626         -0.6021948002197814      9.906714464628822-7.887970171595566E-5i
1.9405906891889022        -0.4838468528711764      10.000189079573532-8.083325986276143E-5i
1.9933092832501398        -0.5339480283248943      9.91359296458995-7.881855783991198E-5i
0.8767432650153197        1.7975876187964461       10.0001890795736-8.139522300395271E-5i
0.8722673295841197        1.8688637773848733       10.353478987135643-7.835161239116776E-5i
0.938944029504763         1.765894705087865        10.000189079573536-8.13871058474135E-5i
0.9372428774517872        1.8383611004179325       10.351567854522669-7.833700626808865E-5i
2.011498830386522         -0.46549800125169755     9.923798142532585-7.882038512093374E-5i
1.9562945823640023        -0.41582629427833645     10.00018907957351-8.084982150670515E-5i
1.0000009167960164        1.7320502782561271       10.00018907957347-8.137845394580225E-5i
0.9995365318623596        1.8031679268010457       10.333465780070467-7.846080222050094E-5i
2.0248819390479262        -0.396301758181974       9.936688773741738-7.889431895329254E-5i
1.9696151759501856        -0.347298227272644       10.00018907957351-8.086648971105787E-5i
2.033473352479235         -0.32171227292174503     9.95232880705227-7.906327503713754E-5i
1.9805360863324843        -0.2783465658757216      10.000189079573506-8.088324654276731E-5i
1.989043884471589         -0.20905603470402634     10.000189079573506-8.090007405437354E-5i
2.046463294343199         -0.248412922733895       9.961700680360094-7.90086540867574E-5i
1.9951281897439634        -0.13951167151523933     10.00018907957349-8.09169543646766E-5i
2.0560102677728413        -0.17666080679843787     9.971981278743442-7.896999001934548E-5i
1.0598395182304123        1.6960955738392598       10.000189079573424-8.136928067915541E-5i
1.0611675489455321        1.7657696175026605       10.316657603032224-7.857167189009276E-5i
1.9987816782866166        -0.06979829901750112     10.000189079573461-8.093386974846E-5i
2.061404346783742         -0.1043615041730438      9.983434355924736-7.897815851152808E-5i
1.11838677881049          1.6580744895757535       10.000189079573394-8.135960009249955E-5i
1.124022778490278         1.7288690430609013       10.317994478509261-7.851839566515587E-5i
2                         0                        10.000189079573454-8.09508030379918E-5i
2.0637769215252866        -0.03229709690062214     9.995013037483291-7.899756172874112E-5i
1.1755714015236338        1.6180333370854134       10.000189079573355-8.134942680375812E-5i
1.1853707627343735        1.690999494734197        10.322913845544052-7.842799333572754E-5i
1.9987816571764048        0.06979890353827216      10.000189079573417-8.096773646247324E-5i
2.0624486565185163        0.03917212496917342      10.006370728062775-7.904971059865233E-5i
1.231323776281266         1.576020862160283        10.00018907957331-8.133877597406926E-5i
1.2447794177178055        1.6495108487650816       10.319197336675964-7.841007595499359E-5i
1.9951281070758407        0.1395128537303027       10.000189079573355-8.098465195065425E-5i
2.058676389654754         0.11049801133255788      10.017309564207851-7.909834422834982E-5i
1.2855793710908479        1.532085402523521        10.000189079573287-8.132766255863596E-5i
1.3009928140992664        1.6044347905863197       10.304449414021528-7.849045271175438E-5i
1.9890437986178802        0.2090568515494133       10.000189079573289-8.100153211308583E-5i
2.0549891826616067        0.18128251779405372      10.028885112868096-7.906879400054767E-5i
1.3382591795353718        1.4862914816378765       10.000189079573243-8.131610546599372E-5i
1.353251684220494         1.556300663338534        10.279313247566064-7.866854531942785E-5i
1.9805361563521657        0.2783460676600089       10.000189079573227-8.101835922320212E-5i
2.050404646572482         0.2518662573695985       10.041848162917775-7.899038477437495E-5i