% Model:              VLR_3_01V03.mph
% Version:            COMSOL 5.5.0.292
% Date:               Jun 7 2020, 21:19
% Dimension:          2
% Nodes:              1789
% Expressions:        1
% Description:        Electric potential
% Length unit:        cm
% x                       y                        V2 (V)
-0.08199822461358115      -0.08390968988337733     9.875380019112598
-0.06241300531509565      -0.07813204699441734     9.883977038231492
-0.07813136861957454      -0.06241385453272508     9.907434689862558
-0.08998922264103305      -0.043611234888071976    9.935481550408937
-0.09855014771866395      -0.06564932539168358     9.90263111853671
-0.061898464789454266     -0.09925373886095169     9.852466749470379
-0.043610259754689656     -0.08998969521077675     9.866271796683424
-0.09740025222662757      -0.022653716388030657    9.966730294314848
-0.11084518655060688      -0.04499268241815598     9.933439356968286
-0.0391403380257305       -0.11068620576289362     9.835385279518697
-0.02265369791667273      -0.0974002565227635      9.855201707089192
-0.01331633138003748      -0.11647488696855035     9.826730648202775
0                         -0.1                     9.851316050728602
-0.1                      0                        10.000500394006202
-0.12017974117265519      -0.006952392494385852    9.990141088908087
0.013439236166640906      -0.11710699311261008     9.825784982309761
0.022653716388030657      -0.09740025222662757     9.85519798598326
0.03894236059355642       -0.11051378405490728     9.835636012944702
0.043611234888071976      -0.08998922264103305     9.866265335112123
0.061997741650123464      -0.09914976006658942     9.852611790272311
0.06241385453272508       -0.07813136861957454     9.883967815928782
0.08202319232786502       -0.08336918167454906     9.876172758277185
0.07813204699441734       -0.06241300531509565     9.907423181373373
-0.09740027579126098      0.02265361507102783      10.034269920411708
-0.11770218477042282      0.0176967802900531       10.026875849800886
0.0984535935368357        -0.06388142749282229     9.90525087340553
0.08998969521077675       -0.043610259754689656    9.935468337864895
-0.08998976940816245      0.04361010664818135      10.065515926756593
-0.1104315016097454       0.041781585383011306     10.062777003979148
-0.0987541246994406       0.06371748721027315      10.095488838200788
-0.07813220659018694      0.062412805523773304     10.093560977194755
-0.08324066344482998      0.08259111068972892      10.123649862781214
-0.062414122765496065     0.07813115434584073      10.117016301044519
-0.04361161765327609      0.08998903714155662      10.1347188245025
-0.0652781507385115       0.09865884696609295      10.147636979647002
-0.02265421350800062      0.09740013660326112      10.145786305197648
-0.044179573319091246     0.11116039376175113      10.166309748782545
0.11040386177580243       -0.041528044519538315    9.93858540172157
0.0974002565227635        -0.02265369791667273     9.96671449749381
0.11734408355700476       -0.01734647613415439     9.974630693037811
0.1                       0                        10.00048419933183
0.11925844013909861       0.006775392338752018     10.010579957797328
0.09740027152773081       0.022653633402266993     10.034254219428863
0.08998929695878763       0.043611081537415886     10.065502884507334
0.1108257300821652        0.04426982298889782      10.06646785972017
0.04361064313298144       0.08998950941930808      10.134712540410872
0.04206847577696436       0.11047041906308609      10.165274852699087
0.02265419578313888       0.09740014072586965      10.1457826799104
0.0781315280452624        0.06241365495876985      10.09354968262711
0.09876956408260817       0.06464458281049228      10.096855256488077
0.0829106265248447        0.08325842480910316      10.124632203247623
0.06241327189725422       0.0781318340440017       10.117007297761882
0.06375002243067655       0.09876625446052761      10.147788525558953
0                         0.1                      10.14966845278701
-0.006280040743469355     0.11994620671643337      10.179438279324236
0.01836068789230439       0.11748726819842975      10.175762997341735
-0.0390421837079447       -0.031236323268193672    9.95391017794086
-0.03123622795269456      -0.03904225996644282     9.942265516490968
-0.028902516036850862     -0.02799454476993259     9.958742611052275
-0.022929265813663627     -0.03549534736926449     9.947553777373647
-0.021907439957443337     -0.044945122922415245    9.933458477578583
-0.011511264375802868     -0.04865686788594568     9.927919674661851
-0.013580156694836969     -0.03727148349138352     9.944902752843385
-0.00509587741559925      -0.0410670399964869      9.939240079083511
0                         -0.05                    9.925914661824866
0.004428180733670958      -0.03972992267247989     9.941233748575529
0.011510879652121941      -0.04865695890244647     9.927917659174657
-0.03629921311157199      -0.022316607631850047    9.967212562166338
-0.04494507062072065      -0.02190754725884285     9.967824635244236
0.013350891724150916      -0.03953296223484311     9.941527337091372
0.02190754725884285       -0.04494507062072065     9.933454981746772
-0.038365431060655174     -0.013213778691250653    9.98078884584146
-0.04865695890244647      -0.011510879652121941    9.983330202659426
-0.0418406543304712       -0.004639395717597255    9.993576775716345
-0.05                     0                        10.000496333182502
-0.04008614961270931      0.0042958887487078955    10.0069021918366
-0.04865686788594568      0.011511264375802868     10.017662820189912
-0.0394335574195311       0.013464316254026576     10.020575569815838
-0.044945122922415245     0.021907439957443337     10.033167049174452
-0.03391175625955506      0.020395039322016        10.03091212786746
-0.03904225996644282      0.03123622795269456      10.047080564896046
0.031236323268193672      -0.0390421837079447      9.942260538619525
0.020625534682305328      -0.034741747210421434    9.948673962827614
0.03904225996644282       -0.03123622795269456     9.953903964438892
0.028239167673035487      -0.02852193240538412     9.957951282904242
0.03426123160606659       -0.02131974764629513     9.968693297503519
0.044945122922415245      -0.021907439957443337    9.96781748915079
0.03973752794590771       -0.014605324412211618    9.978707318706242
0.04865686788594568       -0.011511264375802868    9.983321730446516
0.04050245573207107       -0.006124547014408487    9.991355178037585
0.05                      0                        10.000488230882734
0.04144622117221289       0.0030456789628740205    10.005031060606354
0.04865695890244647       0.011510879652121941     10.017654372942618
0.04494507062072065       0.02190754725884285      10.03315994583572
0.037683889306442536      0.013172049117694321     10.020133603117676
0.03566386183408023       0.021394117786090155     10.032396334206618
0.0390421837079447        0.031236323268193672     10.047074404834992
-0.029069098265885444     0.028827243897026348     10.043488572888908
-0.031236323268193672     0.0390421837079447       10.058723986592828
-0.02190754725884285      0.04494507062072065      10.067529543983312
-0.02077667870346191      0.03319112914976847      10.04999775325008
-0.013310283199382376     0.039220003860721386     10.058990391948809
-0.011510879652121941     0.04865695890244647      10.07306687391845
0.03123622795269456       0.03904225996644282      10.05871906232655
0.02879225497302286       0.027235305035840176     10.041109596373998
0                         0.05                     10.075069882690997
-0.0039188096053217785    0.03910340284951266      10.058816244982454
0.005505293154523942      0.041333985821389925     10.06214260717633
0.011511264375802868      0.04865686788594568      10.073064883533085
0.023068305249670143      0.03578802606938222      10.053867305229806
0.021907439957443337      0.044945122922415245     10.067526092585696
0.014015779799636105      0.03715159899156458      10.055902917691414
-7.6193098986299415       -4.602312957647239       8.623908796199364
-8                        -4.411764705882353       8.646652922671793
-8                        -5                       8.622942733499617
-7.415132450478492        -5                       8.599363805583952
-7.563892997358224        -4.1157729355256665      8.663752888800333
-8                        -3.823529411764707       8.716894208643925
-6.83026490095698         -5                       8.527723001144906
-7.117524045312988        -4.484027146828173       8.588066032793227
-7.543182587104376        -3.53547179744445        8.754793005656692
-8                        -3.2352941176470598      8.831079960965154
-6.506741268751096        -4.530914492872718       8.483533774144043
-6.245397351435468        -5                       8.405352581169264
-7.103341082708087        -3.8375323108548067      8.663054002023289
-6.686975845232392        -4.099155498426091       8.563226153955503
-5.934787195093565        -4.526284370806591       8.337392056442924
-5.660529801913956        -5                       8.2275528932395
-7.531037186767155        -2.9481282857753035      8.889696920920317
-8                        -2.647058823529412       8.985051292548894
-7.0608211554468445       -3.2525804158841396      8.775730874643886
-6.201763795641475        -4.0548427640252305      8.466105645642118
-6.530457715171306        -3.565766339909901       8.626911292909675
-7.529959430324272        -2.359326590753025       9.063241502380295
-8                        -2.0588235294117663      9.173309650405063
-5.354751851044673        -4.521606836880397       8.132615319148705
-5.075662252392444        -5                       7.987332152677991
-5.63583937857464         -4.0424000293384745      8.301716732572606
-7.061029408240517        -2.662583132613442       8.93622651150025
-6.595878952689641        -2.9660006287069374      8.788377144603563
-5.913656333151081        -3.549837244532724       8.48873311570131
-6.159426409878176        -3.138190310264668       8.657357412277001
-0.12258152117288645      -0.0670870558769668      9.90051927271148
-0.10619906567824018      -0.08935022011442621     9.867301353583981
-0.08473677286178972      -0.10864942894231579     9.83848018895479
-4.768221365035446        -4.521201625107507       7.859061688604856
-4.490794702870932        -5                       7.674848653244961
-7.528379574012256        -1.769707107353225       9.268641519390131
-8                        -1.4705882352941193      9.389279099332795
-7.059308933730595        -2.0696647622326365      9.133663859851154
-5.05192390995024         -4.030516123487867       8.074499029132072
-5.349990643418712        -3.5379702622116276      8.312533808240929
-6.589169542108436        -2.3798012187749102      8.974812191098218
-6.130905489281609        -2.6442256486790017      8.807898025072369
-5.648659830689584        -2.9957605923570636      8.57393420110114
-7.598918179143803        4.6199131948288885       11.37959540196374
-8                        5                        11.37852565403804
-8                        4.411764705882343        11.354811346781256
-7.415132450478488        5                        11.402109169172283
-7.525492212108803        -1.1787629452157085      9.499079934401172
-8                        -0.8823529411764723      9.625579727591916
-7.524479780085247        -0.5888732494849623      9.74589424180793
-8                        -0.29411764705882604     9.874286653519894
-7.524726670336666        -6.486081406446853E-5    10.000696579631155
-8                        0.2941176470588207       10.127163195679163
-0.12198351046998848      -0.027876281553387772    9.958959407862046
-0.13595425673392894      -0.04348737242186679     9.935707819236695
-0.15223461308360361      -0.0656174472895635      9.902757073093357
-0.05947159597865794      -0.12415124887924234     9.8153111388217
-0.13551677507993576      -0.09259681347524214     9.862517377539051
-0.11309685764653553      -0.11728346424727554     9.825656233729362
-0.08575299643307253      -0.13794752541984034     9.79476486889518
-4.45123562016252         -4.030463138577418       7.768030772516448
-4.185185671113206        -4.529818081373783       7.508831804267182
-3.905927153349421        -5                       7.27657936201071
-7.052539616656955        -1.4771675424179618      9.360042396869085
-6.58028837646589         -1.7781167615359403      9.201548081051966
-4.75150460146545         -3.52945484881178        8.06626679120842
-5.056794559875143        -3.0619590349868746      8.358040326875107
-6.109606036118445        -2.072753757311896       9.020646053743805
-5.653825388473091        -2.3701139711349173      8.810220282756775
-5.242517106804289        -2.6277121544384943      8.59367217872502
-7.527653136603608        3.506450641651008        11.241813185617149
-8                        3.8235294117646963       11.284573947025615
-8                        3.235294117647051        11.170380015345179
-7.473601104832774        4.1128179552828295       11.343100479631138
-7.105857340407747        4.574983312979272        11.42094206136669
-6.830264900956978        5                        11.47374395815111
-7.524264626991542        0.5891192465593003       10.25566381971953
-8                        0.8823529411764666       10.375871538066306
-7.518720975131546        2.943836515635612        11.111257376925003
-8                        2.647058823529404        11.016407197617054
-7.521878637785914        1.1794011744696578       10.50271391675234
-8                        1.4705882352941124       10.612174924084913
-7.5169573143313535       1.7727614558287104       10.734330515833152
-8                        2.0588235294117583       10.828147866349587
-7.514490961744355        2.3704423378283486       10.942482842218825
-7.048874217329922        -0.8847109647559301      9.608221354086423
-7.047726376210221        -0.29326108144064833     9.869167271221103
-7.047256795871632        0.2979028324752789       10.134363178453055
-0.17070406091841778      -0.0927432828450293      9.862385640162659
-0.14339522606850333      -0.01793165710719194     9.973789936842826
-0.1647142128678937       -0.0374282635321702      9.944765745919668
-0.18365215409351116      -0.061778784667113076    9.908533329071693
-0.054229631811103574     -0.1537451803227145      9.771124851633418
-0.031060600213494143     -0.13462350905658454     9.799648882416692
-2.569651810301457E-6     -0.13873949678677638     9.793490003562324
-0.14837562321606         -0.12355735491147662     9.816396489064799
-0.11868809476057424      -0.15072876910694655     9.775775442428868
-0.0842950255397742       -0.1731270610205473      9.742241577209564
-0.45630539175687695      -4.0751805991841685      1.1990339001309394
-0.5270663060004295       -4.14519485169547        1.6743030622289024
-0.41503998738299414      -4.158422118014789       1.1501146290897102
-0.533708855855684        -4.033217899655975       1.6666579175840368
-0.615000320039455        -4.075390990793236       2.0646489876559793
-1.8008158869880955       -5                       4.7831388607425405
-1.4611124987524509       -5                       4.16489441346316
-1.6310983244353605       -4.6741875170501075      4.513816207338771
-3.63041345830237         -4.591890200947318       7.082012742100265
-3.3524975931192533       -5                       6.804165677140557
-3.152370134345016        -4.630711721388986       6.633778668486207
-2.8860508870577064       -5                       6.318362964874898
-2.5125762498854787       -5                       5.860441369310801
-2.721220803295733        -4.6590707304820995      6.151922511319493
-2.154443670997729        -5                       5.354474890849576
-2.3319306438455527       -4.6537242382950685      5.646632808646616
-1.977705886372803        -4.63397402413517        5.118300732460579
-4.09447583788177         -3.4552288589969864      7.742327601092311
-3.864559365820385        -4.032956749768358       7.386446123917605
-1.2955157477680377       -4.704101430933417       3.8589620380866907
-0.6751734966729607       -4.222491165230216       2.3167235924299745
-0.5098192228106162       -4.259384691360554       1.753544874194352
-0.374625251426417        -4.260860263462418       1.299207487764159
-0.30287917302765577      -4.159005285217065       0.7109053055549746
-1.1276787184086832       -5                       3.5036181789941288
-6.572939137190289        -1.1820818588524213      9.453864138489102
-6.094676023880215        -1.4805299027996117      9.275419757073406
-4.510953463600385        -3.0451206384424965      8.137082415608129
-4.780003619694949        -2.590102972620918       8.456477818913399
-5.606418060948815        -1.7840168388331894      9.061624250865805
-5.088862357967583        -2.0991823048225196      8.79334698946961
-4.077177365098844        -2.908806347471631       7.988450994642351
-3.6576998029321546       -3.0575134980893597      7.6651353125391575
-7.072535072336218        3.2419852456786358       11.221932915131973
-7.1013575981130215       3.681851869686845        11.311722098212977
-6.854804442914906        4.080726926128329        11.407940691285683
-6.55246407355926         4.529601418745902        11.508353422202491
-6.245397351435468        5                        11.596125207690553
-7.044616525548189        0.8896248892365707       10.395502774876931
-6.982827071406714        2.7015837438557573       11.084859859347924
-7.038767536615246        1.4813943836108392       10.643903351786976
-7.025581648850636        2.0774449540074063       10.873234390018736
-6.6903936696794855       3.0765921276606223       11.229353310039517
-6.519332424564291        2.776272525000781        11.168358148246245
-6.570204799628225        -0.5882490427810522      9.723991166010025
-6.569804308398622        0.004756762547158327     10.002973005216012
-6.5691781889954175       0.5991766037558587       10.282576907373178
-0.14282569126497405      0.010429202661038854     10.016041035163978
-0.19079868772981745      -0.1264712033857364      9.812208090041596
-0.20792822919834036      -0.08773816219694257     9.869948308077504
-0.21214997107337533      -0.055633253264435155    9.917738420040662
-0.17529898607749525      -0.002350379298572804    9.997007021526619
-0.19678130397828147      -0.0312301899858215      9.95402945699297
-0.045301622677963484     -0.18883832853017327     9.718691098535094
-0.01902544124194948      -0.1632007311738381      9.756966115953544
0.030129006610241316      -0.13466208472509042     9.799585574253761
0.01707562601607631       -0.1629320073957518      9.757363520055234
0.05881505344865496       -0.12431981102791463     9.815048971753527
0.08446211483222138       -0.10858879198753779     9.838556283475725
0.10629134597472134       -0.08827832561322542     9.868882457224741
-0.16086040264202767      -0.1622873120645412      9.758690198322675
-0.12328129363096668      -0.19188122795949814     9.714362743425939
-0.21186532423526483      -0.17125457966911514     9.74559153534402
-0.0812634183277134       -0.2146929925494803      9.68013059233465
-0.73769103616502         -4.048741333811632       2.580545864197332
-0.35                     -4.05                    0
-0.4450189586606242       -3.9943012055862295      1.1047676076207644
-0.5184823720358057       -3.9534590851535394      1.6662910043393722
-0.45712571741511376      -3.907410732412326       1.4046906325684272
-0.61643576682674         -3.960398765613695       2.1671295233186805
-0.5461223485425475       -3.8753469426358036      2.0011938772383586
-0.24752279932672144      -4.05                    0
-1.4480843379456672       -4.38727950290664        4.248111319903828
-1.1214420341070848       -4.436493213070532       3.5318544991765957
-1.7749675007792416       -4.316826854229295       4.88570848896383
-3.304071001429234        -4.133939997395509       6.897812318007056
-2.861645058549498        -4.255250643776914       6.413957004002561
-2.5290483209870502       -4.354879280687255       5.987790155355438
-2.1718198503223465       -4.229037777922392       5.552572160142879
-0.9336755922078591       -4.175880710775763       3.13992950011474
-1.2572478603749597       -4.136540630140342       3.975024355746014
-3.408640072508437        -3.5240389941564136      7.238655988092256
-3.181610246235489        -2.9674069987312217      7.3989341556647075
-0.9584855375312106       -4.730096346168752       3.1513880262497627
-0.8161914114182804       -4.452588775050138       2.791283103204588
-0.5882358570482962       -4.411590414374722       2.171837992558103
-0.43896249498013806      -4.356034898064028       1.6955872088881119
-0.12707137154069553      -4.05                    0
-0.1828887685879508       -4.173508326777288       0.5693110080671985
-0.2561041674415402       -4.265793432508855       1.0280132670023094
-0.32868396814620443      -4.36683305851103        1.455111649647298
-0.06354069239231906      -4.180925773558476       0.5265188725901053
-5.551115123125783E-17    -4.05                    0
0.06069163041101026       -4.175452986716697       0.5047996476119073
-0.7942449380649155       -5                       2.8334090986634357
0.12707137154069537       -4.05                    0
0.18030047036727595       -4.163407553631501       0.5237145072479857
-6.090895162819989        -0.8839214454970138      9.557959919744654
-5.6079093697378655       -1.1822887547672103      9.361704234856697
-4.3264295154931105       -2.576687187331693       8.284026151393803
-4.518514575388825        -2.128444952809821       8.607364185963865
-5.11867606020288         -1.4784986437480108      9.128210324634862
-4.694982223508973        -1.716059635578845       8.899376146641771
-3.8317496287273927       -2.546006105156637       8.072121406734086
-3.3631806294437987       -2.560907735670408       7.807727303607126
-6.614270758500303        3.541623183304439        11.354260887506259
-6.28127578207634         4.0434838167706895       11.514341339204178
-5.9689380250675335       4.521435525444697        11.6534535679124
-5.660529801913956        5                        11.773932190088638
-6.565257719183071        1.191409467516801        10.552252615175972
-6.551621885415032        2.3505386887972786       11.021321338641203
-6.5487533996006295       1.788012277836178        10.807191030593517
-6.1712472203050535       2.6540206064093383       11.189144329271118
-6.263003021589905        3.1214959404634968       11.31740364804709
-6.091034346716325        -0.2903148141255505      9.853764099446714
-6.089587011699709        0.9103271306419615       10.456484774213875
-6.085531868372804        0.30887266024444304      10.157184460268676
-0.13531167738775382      0.038710277811930295     10.058181114564421
-0.1651184269431479       0.03401003655396251      10.051154411600875
-0.19926678870452         0.029875462945975335     10.044968552347266
-0.24497823129295648      -0.12142846661481596     9.819964401437966
-0.27262835024847437      -0.18103990625710986     9.731459381485493
-0.2442266002859111       -0.06991799103675427     9.89657020814677
-0.28176326842587407      -0.08565788892018772     9.87330911099935
-0.23300909687397195      -0.03143232797436964     9.953772416082442
-0.21612072102766894      -0.002045997250382625    9.997466274265577
-0.03457232331574633      -0.23047456618867204     9.656426675919514
-0.002698704084157642     -0.1961213661442462      9.707769780826071
0.05225442111575157       -0.1544966171978648      9.769991193325524
0.04096103263355574       -0.1907572174545788      9.715810369152864
0.08460785161226793       -0.13905936850523015     9.793089077917434
0.1235384514672366        -0.06432442255823659     9.90461835279572
0.12076277935722658       0.026844917289783433     10.040488997302097
0.11275756040889093       -0.11791008163847738     9.824702197504552
0.136088061792169         -0.09225529047753551     9.863005365672082
-0.17158282968620361      -0.2108027004097214      9.68635816969141
-0.12519025386283764      -0.24114759258498153     9.640761321498706
-0.22981199970621025      -0.22929616584262238     9.659201613651232
-0.2997702539771812       -0.24617722622612992     9.634789614805014
-0.07545277804640259      -0.26288762457744425     9.608023556697452
-0.7236440248706704       -3.906456380824462       2.691056679567734
-0.8715942324571577       -3.9238660175639644      3.1626922571247786
-0.35                     -3.95                    0
-0.480029332659254        -3.831322781068159       1.8239495791058942
-0.39775771978438257      -3.8418341029066467      1.3725897252006378
-0.6421605229557482       -3.8294521591631168      2.530889405390695
-0.5474457601994852       -3.773350397950695       2.3201606174310183
-1.5556155615268223       -4.044480075344316       4.649372653734523
-1.8610796416532027       -3.9326582939917234      5.2545137702698534
-2.9087770608640766       -3.762078098745863       6.6742258339259095
-2.5372001028057607       -3.961601057482036       6.164445413430978
-2.175221743345246        -3.7540796519633814      5.8371743931115665
-1.0960826992060089       -3.9312560123824345      3.7683581888580946
-1.3469089023845375       -3.8290174044204304      4.43359823251179
-2.8492965540926836       -3.259128993431179       6.9275960202502125
-2.8195102171566138       -2.899526084966766       7.17616838707634
-2.9418363447130305       -2.5936488540610787      7.518095637158926
-0.6114416542092928       -4.683564998435324       2.418033267474666
-0.41505443666565117      -4.493632129868485       1.8606913259936506
-0.1318260159883875       -4.315115067611062       1.0275606467968592
-0.26324779249947916      -4.4574003372852875      1.5374343031368023
-0.2241096658640009       -4.367277289877107       1.276573701480187
-1.4962864789069504E-4    -4.3214782602458115      0.9951102444201204
0.12286972466161696       -4.2865244155194455      0.9304846864028714
0.24046125379037936       -4.267393074089098       1.0051631791656117
-0.4608111577211478       -5                       2.2602931362143557
0.24752279932672142       -4.05                    0
0.29037211220348813       -4.160139962348978       0.6818413191174874
-5.613825190633092        -0.5855905389438063      9.67964801878396
-5.128062608223452        -0.8923944140907598      9.464791292740893
-4.031267903664023        -2.102807789292108       8.447140081411748
-4.236740850510881        -1.6725887307047917      8.80203820992377
-4.57688268771278         -1.2031731005477928      9.1913905224056
-3.4744695309275313       -2.0736044534613898      8.233837590229891
-3.0198764115776706       -2.1934751949963323      7.9094789005515524
-3.067873719091807        -1.8589098411770797      8.231318968786344
-6.004804834902899        3.5509743092297645       11.488621699997225
-5.692416880766687        4.0366278902913155       11.679779672510833
-5.382141010287947        4.51929369281343         11.857577786303656
-5.075662252392444        5                        12.0141637176151
-6.065680779337293        1.5082858953930873       10.742181804536614
-6.04424135964648         2.120207905169605        11.01096291538997
-5.779222663933121        2.523823375162656        11.223930354261192
-5.746567407875281        3.0151032374173115       11.407114021737312
-5.603884073683722        0.013786425633412577     10.008329210572496
-5.539410074665057        1.2475513771342217       10.68236897101133
-5.589592715637957        0.6157305555709258       10.339685504573026
-0.026515771605224107     0.12151786285392523      10.181779132726579
-0.12338609431608663      0.06463265836191527      10.096825705211534
-0.10732575215239801      0.08741441385242198      10.130812124467122
-0.08811339415708767      0.10767496570980807      10.161059349376815
-0.06593832388408159      0.12389406922992631      10.185291281437186
-0.15243764452113628      0.06460281672632232      10.096740208657542
-0.0423878733968425       0.13607451012288335      10.203498292215633
-0.18556291937609434      0.06331370358195676      10.094762948646585
-0.2316151077248039       0.027378109808474396     10.041222696400043
-0.2219322316112833       0.05975864797231941      10.08939873505638
-0.30564785819770574      -0.12816503113359107     9.810303881058319
-0.3437174710693061       -0.19010130093106145     9.718675252410742
-0.38131621201077043      -0.2580539798256551      9.618305478970958
-0.33086151909240535      -0.07607027127906782     9.887744484723397
-0.2855308048509481       -0.03761784724977453     9.944663954357216
-0.25899816749463084      0.004120346791266318     10.006635636227786
-0.02574410479136313      -0.27888858597517757     9.583944404864916
0.021904122558072787      -0.24160871590609237     9.639749798458142
0.08176428879475005       -0.1760542594415145      9.737849898681754
0.07562734317296112       -0.22161237829385275     9.669756913973607
0.117340361499035         -0.15396786780666347     9.77091821257528
0.15412827756238198       -0.0629136366306056      9.906763464684722
0.1355149942500193        -0.037559618458521786    9.944518111571584
0.14137793805574486       -0.00925234659238506     9.98669662138699
0.1411765641706105        0.0178684023197086       10.02710163323272
0.13515289086652765       0.04265733539929173      10.064040937639662
0.14745193609061594       -0.12654877776416737     9.811909126977257