% Model:              VLR_3_01V03.mph
% Version:            COMSOL 5.5.0.292
% Date:               Jun 7 2020, 21:20
% Dimension:          2
% Nodes:              2784
% Expressions:        1
% Description:        Electric potential
% Length unit:        cm
% x                       y                        V2 (V)
0.08998929695878763       0.043611081537415886     10.107568707496366
0.09740027152773081       0.022653633402266993     10.055873670915364
0.11052914318140596       0.04435296718065007      10.109396203990483
0.0781315280452624        0.06241365495876985      10.153950557336689
0.09843315168703837       0.06504808237939746      10.160445575346145
0.1                       0                        9.999996104451753
0.11867780533938196       0.007142575818807732     10.017614269181443
0.0825814401453644        0.08344265441103638      10.205823374058745
0.06241327189725422       0.0781318340440017       10.192726115319324
0.0974002565227635        -0.02265369791667273     9.944118140948047
0.11708271641142108       -0.017444375454459614    9.956969810560127
0.06344080778484039       0.09892906268156314      10.244029773873121
0.04361064313298144       0.08998950941930808      10.221979672282954
0.08998969521077675       -0.043610259754689656    9.89242461456945
0.11081829722056785       -0.04097541239487916     9.898928070637337
0.04142563473442876       0.11036807069456671      10.272252614789737
0.02265419578313888       0.09740014072586965      10.240262648372807
0.09903207576112977       -0.06347358419611365     9.843430443284715
0.07813204699441734       -0.06241300531509565     9.846041258185904
0.08286038732078894       -0.08319553555712846     9.794776920470612
0.06241385453272508       -0.07813136861957454     9.80726381177942
0.01715740354886006       0.11725149730849332      10.289236021482877
0                         0.1                      10.246676322103983
-0.0064740559030428335    0.11848803093970481      10.292286086203363
-0.02265421350800062      0.09740013660326112      10.240260575611023
0.06306868893423338       -0.09928785839661304     9.755073885243574
0.043611234888071976      -0.08998922264103305     9.778008098604962
0.022653716388030657      -0.09740025222662757     9.75972222652504
0.03987009553321275       -0.11193625563233207     9.723865227128796
-0.04361161765327609      0.08998903714155662      10.221974534326723
-0.0434681024396428       0.11071218458539905      10.273097315731048
-0.062414122765496065     0.07813115434584073      10.192718750603841
-0.06463337055632401      0.098515307987449        10.243002972930249
-0.08301512227585264      0.08244129824074012      10.20334558708912
-0.07813220659018694      0.062412805523773304     10.15394133667375
-0.09865856047849957      0.06290190099352708      10.155142593044594
-0.08998976940816245      0.04361010664818135      10.107558089534262
-0.11026640506571476      0.04061354722724132      10.100162556887923
-0.09740027579126098      0.02265361507102783      10.055864729368333
0                         -0.1                     9.75330675881919
0.01163165568303054       -0.12150299204406163     9.700259377154955
-0.11724412668197655      0.01683037576614881      10.041498790042633
-0.1                      0                        9.999986963113393
-0.11839634501386981      -0.006563024507970247    9.98379827363057
-0.09740025222662757      -0.022653716388030657    9.94410918554736
-0.02265369791667273      -0.0974002565227635      9.759720139988362
-0.01703370475917194      -0.11657424948482137     9.712417848363588
-0.04125249556134633      -0.10951571589360319     9.729833173519852
-0.043610259754689656     -0.08998969521077675     9.778002935771978
-0.08998922264103305      -0.043611234888071976    9.892413972075495
-0.11059231205095632      -0.04353742504443414     9.892598466515027
-0.0633442250360934       -0.09844689973531524     9.757142710891479
-0.06241300531509565      -0.07813204699441734     9.807256420013399
-0.08301622064827016      -0.08301712296082947     9.795209466687474
-0.07813136861957454      -0.06241385453272508     9.846032007801298
-0.09863835650121516      -0.06444571340439449     9.84102336777785
0.04865695890244647       0.011510879652121941     10.028388125864332
0.04494507062072065       0.02190754725884285      10.054034039722374
0.037683889306442536      0.013172049117694321     10.032485538582172
0.03566386183408023       0.021394117786090155     10.052767411488208
0.0390421837079447        0.031236323268193672     10.077045919429427
0.04144622117221289       0.0030456789628740205    10.00750636837359
0.05                      0                        9.99999382129454
0.04050245573207107       -0.006124547014408487    9.984885632199287
0.04865686788594568       -0.011511264375802868    9.971598444892466
0.03123622795269456       0.03904225996644282      10.09630149335989
0.02879225497302286       0.027235305035840176     10.067176204530357
0.023068305249670143      0.03578802606938222      10.088273896645367
0.021907439957443337      0.044945122922415245     10.110862669428167
0.03973752794590771       -0.014605324412211618    9.963965567034961
0.044945122922415245      -0.021907439957443337    9.945953405837153
0.03426123160606659       -0.02131974764629513     9.947402272429953
0.03904225996644282       -0.03123622795269456     9.922940957726118
0.011511264375802868      0.04865686788594568      10.1200187096694
0.014015779799636105      0.03715159899156458      10.091637379694864
0.005505293154523942      0.041333985821389925     10.101954276118624
0                         0.05                     10.123331585341356
-0.011510879652121941     0.04865695890244647      10.1200178840843
-0.0039188096053217785    0.03910340284951266      10.096451421425565
-0.013310283199382376     0.039220003860721386     10.096738506479946
-0.02190754725884285      0.04494507062072065      10.110860541207497
-0.031236323268193672     0.0390421837079447       10.096298454582287
-0.02077667870346191      0.03319112914976847      10.081865938774179
0.031236323268193672      -0.0390421837079447      9.903684624050715
0.028239167673035487      -0.02852193240538412     9.929635626720609
-0.029069098265885444     0.028827243897026348     10.071100524692852
-0.03904225996644282      0.03123622795269456      10.077042120061824
-0.044945122922415245     0.021907439957443337     10.054029670477355
-0.03391175625955506      0.020395039322016        10.050299784726937
0.02190754725884285       -0.04494507062072065     9.889122537242201
0.020625534682305328      -0.034741747210421434    9.914292064405144
0.013350891724150916      -0.03953296223484311     9.902472563912557
0.011510879652121941      -0.04865695890244647     9.87996519370097
-0.0394335574195311       0.013464316254026576     10.033202935453104
-0.04865686788594568      0.011511264375802868     10.028384629646501
-0.04008614961270931      0.0042958887487078955    10.010586611333464
-0.05                     0                        9.999989251315046
0.004428180733670958      -0.03972992267247989     9.901986173122351
0                         -0.05                    9.876651490904356
-0.00509587741559925      -0.0410670399964869      9.89868732047673
-0.011511264375802868     -0.04865686788594568     9.879964364687595
-0.0418406543304712       -0.004639395717597255    9.988545382882466
-0.04865695890244647      -0.011510879652121941    9.971594945228116
-0.038365431060655174     -0.013213778691250653    9.96739457822933
-0.04494507062072065      -0.02190754725884285     9.945949030268222
-0.021907439957443337     -0.044945122922415245    9.889120403052218
-0.013580156694836969     -0.03727148349138352     9.908049973497244
-0.022929265813663627     -0.03549534736926449     9.91243115744931
-0.03123622795269456      -0.03904225996644282     9.90368157755808
-0.03629921311157199      -0.022316607631850047    9.944940079358247
-0.0390421837079447       -0.031236323268193672    9.922937150618113
-0.028902516036850862     -0.02799454476993259     9.930933985099202
3.739338923278618         4.280172670066005        19.592054270319895
3.879862769971442         4.276635566285411        19.42474645463849
3.8016151559625255        4.403222110593403        19.360915491102357
3.959221729613508         4.38888766222818         19.127074514820965
3.9067788309754734        4.488352658088754        19.119963345421365
4.016296814768528         4.278633714475319        19.149961225476233
4.0643131442461815        4.519413108239709        18.81341840324447
4.083640692164292         4.381835167379991        18.873402612651304
4.071097986275381         4.172685519849078        19.159835533553988
3.945387027387387         4.1643714805667384       19.55017226559808
3.816502541672155         4.160134679916224        19.73585077943272
3.6833708426313194        4.155897792985372        19.823839951605972
3.6150822038950765        4.239623240198269        19.739474748542293
3.495041210443651         4.2792431277135545       19.757304920581927
3.599916173907295         4.416000291154227        19.559777569415285
3.7448568509584717        4.54164150838959         19.305240212879976
3.934513364003888         4.729992558515695        18.93309230493657
3.7411471750929257        4.718557692788818        19.20772917943925
4                         4.05                     20
4.118858757691507         4.078777828051864        19.06742563570379
4.105408504384495         3.9907289445087457       19.11817332944928
4.203388097558426         4.037864092380172        18.678751124918605
4.158570683199161         4.287386890542519        18.759894536052915
4.082031373102218         5                        18.64983447904266
4.236384462305516         4.683141311660714        18.413731909782125
4.4185160951638345        5                        18.043507310246977
4.2201443542662025        4.436829101693535        18.52273202272158
4.2189139175801085        4.1601189363288205       18.63453308942087
4.208272502759771         3.9436065188016505       18.55720446364683
4.571961925208333         4.7171412169132605       17.747757284708666
4.755000817225451         5                        17.41106844196783
3.551506162711689         4.155456167731733        19.86981706773452
3.415100469272552         4.157660318079351        19.898974663012467
3.359171334488641         4.258731148638811        19.827813825284565
3.8889104351460464        4.05                     20
3.758427205658066         4.05                     20
3.61936801857231          4.05                     20
3.391058997512096         4.445906987249127        19.679941219625224
3.230805130965347         4.32244486642327         19.825049678957047
2.915211054740462         4.264302768528605        19.918806107243114
3.04772196960921          4.316224435367335        19.8752540859119
2.895790507369096         4.410191232793222        19.873378606834397
3.4937760572554657        4.704008593000232        19.472169876704104
3.742224213565717         5                        19.14951215743923
4.116998035830199         3.8932429770354293       18.855553837439956
4                         3.95                     20
4.282057574297919         3.994886120132364        18.336903086991644
4.291553977929286         4.07740242989358         18.36645402782103
4.329799957740634         4.29973255160562         18.283540875509974
4.446963967866372         4.45989228742031         17.997614439780296
4.349062213428281         4.151077236032528        18.211883181551386
4.217174583958948         3.845659297857603        18.333327550218055
4.1348206561387           3.8060167185235105       18.522947326648943
4.324871367711556         3.9002763599753667       18.06837191132776
4.909672277784956         4.708251294193744        17.108039571674222
5.091676632715828         5                        16.818831559118333
4.737995207665333         4.432872271200663        17.36840226192712
3.2704143471768448        4.1651928773770095       19.917534891838525
3.4801615563195325        4.05                     20
3.3409550940667545        4.05                     20
2.7940592291151574        4.285784273979929        19.927506612559508
3.129660241977054         4.185050334327746        19.92496127157405
2.994080883950497         4.16947173986633         19.947377951764864
2.8544889794250823        4.160235524185021        19.96166251483837
2.7249806106794034        4.4132717277415425       19.904154875908784
2.674281083747179         4.268208296096484        19.944897546173824
3.12000747644548          4.603919719924138        19.741536331623347
2.8256038994000203        4.585104224445539        19.84532346442193
3.348227662100417         5                        19.535826749154555
4.039691474770305         3.821228625517377        18.911944402711665
3.8872480222625168        3.95                     20
3.931250997594006         3.8305087573988343       19.259267494126785
4.096720534465092         3.729790806142199        18.396471390826004
4.203518651668956         3.7401618860649446       18.117976464886578
4.411657530556231         4.0261177312967025       17.94687976070776
4.519565993816258         4.204291328296825        17.76870985362834
4.325303509738481         3.7742258513123343       17.84360524088366
4.4597709553552916        3.837213841131446        17.585083835139432
5.255846129808309         4.684162323969221        16.520756377737737
5.4376934553489455        5                        16.282728584793375
4.857351699763711         4.161605106803947        16.99660977598083
5.0602830818181825        4.409270522302228        16.755097122520194
7.6153606173139305        4.601107139948206        14.566952836511314
8                         5                        14.569926348659072
7.409780872709702         5                        14.654163498027822
8                         4.411764705882353        14.486949688634844
2.5530764997033084        4.341602086263266        19.94090745098281
3.201748631813976         4.05                     20
2.7227999316275215        4.164753811743607        19.96804118357088
2.5849182696192017        4.174294776200215        19.97254660256937
3.0625421695611985        4.05                     20
2.9233357073084205        4.05                     20
2.7841292450556425        4.05                     20
3.75460744771528          3.95                     20
3.8099511233487946        3.827478950749082        19.40616678418112
3.6156191998335467        3.95                     20
3.6787515247751763        3.8226863509283007       19.470051324515143
3.4765569229168727        3.95                     20
3.541853533143582         3.8237813789776034       19.525289495419376
2.0858090831204184        4.2837565292830595       19.97785147909618
2.2175008740438997        4.322084655843108        19.968227195337295
2.089968902176409         4.401135944636948        19.96757236013906
2.5239039488341137        4.634044808623431        19.900445518230487
2.3637801077917735        4.369733937078471        19.953048165021915
2.2460292092476104        4.523981628831443        19.94592745303659
2.8640176231357355        5                        19.78861053871161
3.9905926744547333        3.716268716082168        18.61932569639141
3.8722817783272667        3.702906842679209        18.78708319768644
4.064705573934643         3.6172649510008927       18.107238349108773
4.174946195573888         3.619288277746956        17.86472427439605
4.306972516677031         3.629206097303797        17.578613808152426
4.665476756501251         3.934370015608001        17.20846202271332
4.447291136135276         3.6590894423397393       17.314701388960515
4.584025431488955         3.7292036462565354       17.12698198921913
5.80700941501795          5                        15.799473399530363
5.628344863298833         4.639249331947321        15.978024847339002
5.407406467883109         4.348202795372031        16.17791062143685
6.267356903828639         5                        15.32066591473464
6.039006346349694         4.5932722340201275       15.490128888380355
4.992324770965579         3.861930639562915        16.492979297643505
5.199209919113329         4.084690890479605        16.338908141700518
6.505984680485463         4.543640198393098        15.06405522392859
6.819561745419405         5                        14.911455810563945
7.104664668038066         4.480513052422154        14.696205463664949
7.56235754582189          4.11325794143652         14.425986769825082
8                         3.823529411764707        14.242328137802154
2.4480647578680594        4.197744178521113        19.974098144441285
2.2981541180941383        4.195952367673172        19.980038494521292
2.1559463682054734        4.181676973433024        19.985745902658945
1.9457710296561552        4.336142148948991        19.978757142821355
2.0120885090169445        4.190803604833135        19.98799905258105
3.3374946460001995        3.95                     20
3.405613214043065         3.8240985836245307       19.55900009332258
3.198432369083526         3.95                     20
3.270085250380614         3.8249217570501677       19.58447685786791
2.6449227828028645        4.05                     20
2.5057163205500865        4.05                     20
3.7434380140192873        3.6884072881510646       18.886656433387973
3.607857068340631         3.696165896199388        19.022070949501174
3.4670039701871533        3.6994559730487415       19.1060588647052
1.9474962030880578        4.593134085835704        19.96342358559529
1.7867395154398509        4.381157831530912        19.981317533135666
1.6659357831121588        4.535222783960445        19.978828339521197
1.6439672371278402        4.330925179338715        19.987283763038707
1.5162656090300455        4.412707675549875        19.98700468424134
2.2827728508535188        5                        19.91866908875893
3.9396171949464516        3.5933795056415754       18.268002621042417
3.8188406656003293        3.5613978380525326       18.333991634249482
4.016571981906962         3.5094667206153014       17.861524345291652
4.124807058839344         3.493606699367334        17.618989475623426
4.266199762003521         3.4801908923758          17.31319614300098
4.4246922435235385        3.5020295028522304       17.052493208530382
4.78908566372697          3.6768827647670923       16.641776751372912
4.607660544495804         3.555734574268523        16.799031849868864
5.789272798097047         4.236926942748141        15.628765122079193
5.509282639155009         4.034840536193282        15.854632178797157
6.170415423312063         4.143832119484334        15.18948068051352
5.0114835965671745        3.585629970510133        16.146967566908334
5.32450924466948          3.6967792779262996       15.816742122334034
6.634902995964905         4.044223784431975        14.780391984284043
7.106631635049919         3.8324249254012885       14.421770331330805
7.547489347284508         3.5302113249404092       14.105294399919293
8                         3.2352941176470598       13.848422880017283
0.12056535044826479       0.026914980487632988     10.066383296062238
0.13426138483595942       0.04218236462702644      10.104038695601048
0.12296731351957309       0.06536472794435971      10.16122109197076
2.3665098582973085        4.05                     20
2.2273033960445305        4.05                     20
2.0880969337917525        4.05                     20
1.8690731840519752        4.2089868616029165       19.989322096381496
1.7289246235937794        4.200463571176024        19.991965880999143
1.9488904715389745        4.05                     20
3.0593700921668523        3.95                     20
3.129924044985276         3.827251715278067        19.609158621055162
3.3406850025573567        3.696432059488214        19.14189949986041
3.2083622256142563        3.7017481839101904       19.195430564019443
2.9203078152501787        3.95                     20
2.989291259422771         3.8242239591410683       19.612854520304186
2.781245538333505         3.95                     20
2.8519127768323447        3.8224237634959293       19.61771919308555
2.6421832614168315        3.95                     20
2.7114225887840835        3.823798623519133        19.630303761737295
3.5289330455553864        3.5867853192305788       18.686229444564724
3.661353686589409         3.5320153176497664       18.400463155089557
3.409405035929343         3.5598816699068045       18.663416061539767
1.5156398683929873        4.288040600962777        19.991174949461975
1.3724952023198258        4.331211697596128        19.991822913587807
1.5936062486233942        4.181711554583606        19.99435308996856
1.376436730131307         4.596614728685269        19.985570862310222
1.2000128466913413        4.371105421212162        19.992998858426784
1.6926104804190238        5                        19.969255664380796
3.9163390404905476        3.458554285634567        17.860774687850398
3.7793941242564575        3.391736564586633        17.823929944009368
4.037391041323826         3.384528161432139        17.459685311878868
4.1931514190724055        3.3287416235841585       17.066702149549386
4.372904567924406         3.307694383559818        16.72869220433787
4.547124933905195         3.3802616272657025       16.589863333324892
4.8073813663843685        3.3778662818537084       16.166856812025216
5.82353240716799          3.7826191876781814       15.295308638180204
6.2885819983149975        3.7677086633372125       14.859582125721454
5.178264292515948         3.3224350556646174       15.569725450468995
5.588038891366562         3.3323999824099886       15.111071204929077
6.634434408640699         3.499504106584922        14.426668989661406
7.081023992511386         3.233926032190198        14.007680124347408
7.534993528435685         2.9430057030720023       13.640178043993444
8                         2.647058823529412        13.324319432159248
0.15219202365176268       0.06229702024216642      10.153646276241666
0.15763769761580812       0.03637336359138872      10.08970734044969
0.14167678059894195       0.017791128315960747     10.043878229314783
0.106712838010067         0.08806649284231574      10.217222987234207
0.13569264108236676       0.09026773772438854      10.222642261241056
0.17066873150812284       0.08897634539566454      10.219440616849916
1.8096840092861968        4.05                     20
1.6704775470334186        4.05                     20
3.0538512670873263        3.705757060977097        19.239492503471734
3.2676157976748805        3.549023222707727        18.690933369411947
3.1308632565717627        3.597495273888176        18.887307614194178
2.503120984500158         3.95                     20
2.5709378212360297        3.822129290529766        19.632420433135024
2.3640587075834842        3.95                     20
2.4340792804672136        3.821430411064382        19.63610002978911
2.920499019353744         3.68982502972189         19.212514416469308
2.788710439849786         3.6966949685934836       19.2505151126887
2.633130244640746         3.7007962653253554       19.278928926606323
3.50678980525302          3.4385167531639165       18.213850297938304
3.644223083100748         3.3610975641642526       17.862572232061307
3.34224649851299          3.392426987520747        18.16878669312497
1.0851500298161407        4.526583425700961        19.99181509453444
1.0649634804332935        4.325500599828531        19.995083156762632
0.947363625357184         4.398736426835483        19.994917873497585
0.9561482732384808        4.277918407004253        19.99652204214556
1.4516692384619418        4.184174800968243        19.995438056407774
1.3048689458988116        4.204228488970831        19.99587553244716
1.1618377022640278        4.196885813723886        19.99687084316979
1.5312710847806406        4.05                     20
1.1023913531287235        5                        19.988142709849463
3.9040657343156786        3.2821883365639017       17.350588243477556
3.729058987211662         3.2120763838871627       17.338521330812085
4.0710448708299545        3.1838570657127425       16.87267098102583
4.288187304595341         3.119034307772318        16.42949286891016
4.574580864289215         3.128287649632402        16.061819060822454
4.935629147970568         3.0001659840768182       15.381068051599511
6.112614611601814         3.262047075544848        14.566818778117238
5.324229379440101         2.9065280177200075       14.827984846451171
5.742168990970318         2.934538835027138        14.49462474391448
6.599269005362139         2.9471806716633466       13.948901768149627
7.063398883036194         2.651422133662694        13.464861077596344
7.5282781149694085        2.355876333767797        13.054209677229368
8                         2.0588235294117663       12.693375334537016
0.18686971206058134       0.049841653510312        10.122916798961993
0.20407876560249125       0.08748164416205709      10.215735035541941
0.23133191610746018       0.06466358461766886      10.159449929454418
0.1751622238547331        0.010618307848428578     10.02618650098195
0.14537605722960975       -0.007899069383475862    9.980515995544481
0.08645123234868297       0.10822046089909752      10.2669448753039
0.11456762487795585       0.1166547559942104       10.287740202504624
0.1930070348183957        0.12581839206237921      10.310291781215122
0.14854512374364598       0.12252907239891787      10.302212001784811
2.2249964306668106        3.95                     20
2.2941751780828956        3.8239634387145003       19.648040063177856
2.085934153750137         3.95                     20
2.1538593020904684        3.8241906158443717       19.6526995530358
1.9468718768334634        3.95                     20
2.016519985185934         3.8251484981066857       19.658661855588004
1.80780959991679          3.95                     20
1.8763622765116945        3.828500591151506        19.670634644610846
2.9937951026669243        3.5526250290130936       18.78592609907396
3.127772924338759         3.4149159064050636       18.33189947670623
2.5016914471209626        3.686742393655834        19.25036339187975
2.370494403262112         3.695734972386128        19.285614868011578
2.845861878612547         3.543555194746142        18.791283507047723
2.710714611815145         3.5929249089742057       18.95809163258756
2.574670246588572         3.5483336234819176       18.849370561791588
3.496304758990508         3.219840639932218        17.55378596855658
3.2455906688914284        3.1723837330087554       17.566409980268755
0.23851643351789598       0.10810824522426081      10.266574598161114
0.241546400737667         0.15392728015574336      10.379562319690287
0.7780818493711059        4.55554949055343         19.994603238824112
0.8410961504685263        4.310520581766282        19.996675946587434
1.0346710822633307        4.180480372331795        19.997717847393627
0.8926470276700695        4.174354054259178        19.998246307573396
1.3920646225278626        4.05                     20
1.2528581602750846        4.05                     20
1.1136516980223066        4.05                     20
0.5121722258384231        5                        19.99484787533041
0.48592842071812903       4.546292805713294        19.996333736612716
3.8933486590644684        3.050908885026349        16.73060807253032
3.65705797421051          2.966506713595267        16.719732757577024
4.114527698716836         2.9233158891852016       16.179447585892536
4.375262225489902         2.898785041486973        15.838086515157162
4.6402516386979755        2.7404689073534385       15.23598332118493
5.04046204958116          2.5499620893131727       14.524712957103814
6.120649719855891         2.6712714558270183       13.905039232495655
5.5795225867959415        2.427934683289036        13.925542412247824
6.583492416526856         2.3649132261703945       13.309028992222283
7.0536183295774215        2.064515127151075        12.805898141561398
7.525536357722847         1.7663887439276054       12.370223869903972
8                         1.4705882352941193       11.980619860165069
0.2743223822192511        0.08161194386199902      10.201211116393926
0.2256979873136757        0.021760954649291887     10.053660673370517
0.2618580303446699        0.04476682253692742      10.110376460645176
0.20581478923580696       -0.018586450262490388    9.954166909489897
0.13679086768645898       -0.035638495532198146    9.912097506990404
0.16893294567843295       -0.025682569868732467    9.936659523869624
0.06260670598629929       0.12407489221961587      10.306063335313167
0.08891154730618168       0.13842201215476524      10.341449041426344
0.2039142567645192        0.17572805741577585      10.433381123758181
0.2427943544109598        0.2076737525402409       10.512115610108497
0.12151274788486839       0.15324212762628545      10.377992587728317
0.16104145815774804       0.1688480328164575       10.416458734410872
2.2175649708291614        3.7024158730968115       19.313610921631646
2.0839665361676967        3.6936097672621933       19.29630864075575
1.9521262612681012        3.7045878889846997       19.332119833539938
1.6687473230001162        3.95                     20
1.7364655637967863        3.8252258099254193       19.664219287529566
1.5296850460834426        3.95                     20
1.5990607573701858        3.8231319112980304       19.660689598132944