% Model:              VLR_3_01V03.mph
% Version:            COMSOL 5.5.0.292
% Date:               Jun 7 2020, 21:20
% Dimension:          2
% Nodes:              4432
% Expressions:        1
% Description:        Electric potential
% Length unit:        cm
% x                       y                        V2 (V)
-1.956295342776008        -0.415822716831225       9.00734533200886
-1.969615612575539        -0.34729575105187127     9.17158188103479
-2.023137829916343        -0.3961956666361184      9.056738288315424
-1.854368097503255        -0.7492122255824168      8.201660882715945
-1.8972986142533392       -0.80528724052606        8.06924366038154
-1.8270913727439153       -0.8134722586817302      8.044751475229786
-1.9405916361373317       -0.48384305487816526     8.843936625944627
-2.00905639493833         -0.46580994291348327     8.890043943146862
-1.8793856107560087       -0.6840392723252542      8.36020431162858
-1.925168192350494        -0.739268154802185       8.230111350807048
-1.922523615986301        -0.5512739300701226      8.681505720587257
-1.9928491855136707       -0.5341101785692813      8.726066641684817
-1.9021133134226649       -0.6180331244361026      8.520207975779547
-1.950413520887485        -0.6714237363066422      8.39472939805668
-1.9729531617135447       -0.6025155047589551      8.56128365864201
-1.8688848326865217       -0.8707481714413231      7.909209581879298
-1.7975886712019693       -0.8767411072639045      7.889655260197036
-1.8385041120374854       -0.935175224052863       7.75105617320219
-1.7658958194126329       -0.9389419337642696      7.73655699297603
-1.7650583835454803       -1.0597450853252617      7.4427361053678
-1.6960970145702927       -1.059837212578299       7.437126083093733
-1.7320516530906418       -0.9999985355119151      7.585648958229499
-1.8051655804949334       -0.997886432570694       7.596363128809892
-1.6180348804555982       -1.1755692772563593      7.148049466165927
-1.6580759770092384       -1.1183845735992872      7.291191041257403
-1.690948918601523        -1.1843444091833661      7.132429894942242
-1.728614172694497        -1.1254941175696214      7.279437864494821
-1.5320900393664239       -1.2855738451268326      6.870983118357434
-1.576022722326162        -1.2313213953763789      7.007910632262617
-1.600722411981213        -1.2971217066533818      6.848086586750058
-1.6482548082787312       -1.2408707649733162      6.990302639035073
-1.4862908391530114       -1.3382598930887217      6.737480189231083
-1.5565701842810087       -1.3534519441991417      6.705617222247654
-1.510203769161652        -1.4069821186119338      6.5695681143212985
-1.4386809161800385       -1.3893153786737424      6.607613097721827
-1.4592667418604286       -1.457099072362988       6.441344424116569
-1.3893182052767965       -1.4386781865610048      6.481591332218478
-1.4048082713595262       -1.506403882135183       6.314667643502883
-1.3382628154045375       -1.4862882078875281      6.359621632203923
-1.2855768616442023       -1.5320875082073617      6.241906501932413
-1.3520179672346089       -1.556843369245873       6.185142102057564
-1.2981298080571584       -1.6029218799290263      6.0662657925566625
-1.231324651550908        -1.576020178323563       6.128643539333865
-1.9805362028419167       -0.27834573686787656     9.336500632960249
-2.0360381191995547       -0.3254620556540812      9.225758931029324
-1.9890438248327997       -0.2090566021308754      9.501960310923259
-2.0482178988198045       -0.25354049595007255     9.397312795645933
-1.9951281187484384       -0.1395126868041629      9.667822915662699
-2.058460650102993        -0.180619128069933       9.570957550997496
-1.9987816601289903       -0.06979881898713512     9.83395249328059
-2.0640518142416124       -0.10821936258390591     9.743106832319752
-2                        0                        10.000214879667743
-2.063747282469154        -0.03726118707796482     9.911694210720142
-1.9987816782866166       0.06979829901750112      10.16647584714476
-2.0598592614494073       0.03450364079635532      10.082201949556108
-1.9951281897439634       0.13951167151523933      10.332603707002304
-2.057394311352236        0.10832765803823481      10.257655147924178
-1.989043884471589        0.20905603470402634      10.49846648687069
-2.0546475411072262       0.17981749096847885      10.427637003144797
-1.9805360863324843       0.2783465658757216       10.66392825177948
-2.0468157155033944       0.2503052459210826       10.595455733612129
-1.8543666708332327       0.7492157567102231       11.798755971458148
-1.8270897678796263       0.8134758632618257       11.955661566450184
-1.8996368285392806       0.8050031579631608       11.930320128799842
-1.9021122442932346       0.6180364148735531       11.48021531524796
-1.8793843415870752       0.6840427593340318       11.64021610717129
-1.949017370050316        0.669610080916595        11.601417870681104
-1.9241114996757156       0.7378868395185133       11.767047484920008
-1.9225226650906264       0.5512772462317256       11.31892062190043
-1.9728151976544908       0.6028384720011086       11.439918625707428
-1.9696151759501856       0.347298227272644        10.828849334589028
-2.036628191136948        0.3200218927635492       10.761696202185773
-1.9562945823640023       0.41582629427833645      10.993086571251025
-2.0248492232760493       0.39076674395864663      10.930680827599163
-1.9405906891889022       0.4838468528711764       11.156493513884849
-2.008618705094171        0.4623649992919381       11.102175335582432
-1.9922964337224716       0.5336153621383626       11.273201163473175
-1.1755723723518754       -1.6180326317361413      6.020023744487567
-1.2392943931405167       -1.6454115608973374      5.955927341957988
-1.118387843533969        -1.6580737714092937      5.916230266309648
-1.1825005107947921       -1.6898021206996752      5.840962973296107
-0.8040551126541726       -1.8950962378554492      5.303614656311265
-0.7492157567102231       -1.8543666708332327      5.403956080596918
-0.8134758632618257       -1.8270897678796263      5.475452774464022
-0.8767447256940895       -1.797586906374097       5.552679486372511
-0.87067326345749         -1.867869268101096       5.375400668208574
-0.9389453881774121       -1.7658939826672406      5.635511345477114
-0.9343610830036986       -1.8367490800563737      5.457039271800927
-1.0598406742514284       -1.6960948514756706      5.817438013188837
-1.123231825170988        -1.7304943047362593      5.735096286106657
-0.9981953314891502       -1.8007868288216229      5.551022311943359
-1.0000021710325444       -1.732049554120839       5.723812885403421
-1.0618119145261773       -1.767076680940096       5.639462133089098
-0.2783465658757216       -1.9805360863324843      5.0721862514670475
-0.2512212145888999       -2.0450561444781608      4.9084663169336435
-0.20905603470402634      -1.989043884471589       5.049759981481696
-0.6840427593340318       -1.8793843415870752      5.338303788726843
-0.7368560310831845       -1.925095985086776       5.225009402956162
-0.6718432756933781       -1.9510350961252636      5.156945800052065
-0.6180364148735531       -1.9021122442932346      5.278599563786325
-0.5512772462317256       -1.9225226650906264      5.224936391646978
-0.6026064907246679       -1.9714399683660597      5.102934400189671
-0.347298227272644        -1.9696151759501856      5.100964515944374
-0.3234141254208877       -2.0383779442944565      4.926497230229234
-0.41582629427833645      -1.9562945823640023      5.1360521775464285
-0.3948469600506446       -2.0285073464898105      4.95287953209257
-0.4838468528711764       -1.9405906891889022      5.17739681841634
-0.4651888280440699       -2.0129888871072437      4.993808873556209
-0.5331457300996127       -1.9930188852916153      5.046194349599947
-1.797586906374097        0.8767447256940895       12.110753511321093
-1.8716961082319135       0.8704916037210775       12.090371691530622
-1.7658939826672406       0.9389453881774121       12.26384677173831
-1.839844047661284        0.9349629579169196       12.248728665467517
-1.732049554120839        1.0000021710325444       12.414750400092593
-1.8047002643874142       0.9988703532735242       12.406458620301064
-1.6960948514756706       1.0598406742514284       12.5632677302074
-1.7685338144276215       1.0622774382078728       12.563541571367255
-1.6580737714092937       1.118387843533969        12.709196922760412
-1.7308875521456484       1.1240204814739687       12.717161305419234
-1.6180326317361413       1.1755723723518754       12.852332532295039
-1.6909708837923496       1.1842979016060762       12.86783297317056
-1.576020178323563        1.231324651550908        12.992466085908106
-1.6489256939426988       1.242711145303325        13.014530883323369
-1.5320875082073617       1.2855768616442023       13.129387159424473
-1.6044931455605298       1.2988893162079005       13.156314662208677
-1.4862882078875281       1.3382628154045375       13.262883924284532
-1.5579201163389373       1.3529244665757882       13.293329479128749
-1.4386781865610048       1.3893182052767965       13.392744795280835
-1.5099641083895345       1.4043239326002528       13.424231902364395
-1.3893153786737424       1.4386809161800385       13.51876031214252
-1.460287775562729        1.4548272827409257       13.553290009474148
-1.3382598930887217       1.4862908391530114       13.640723767773599
-1.409280503092728        1.5050337212905998       13.681918800430894
-1.2855738451268326       1.5320900393664239       13.75843269801801
-1.3581601269940482       1.5544373621998309       13.808733706525244
-1.2313213953763789       1.576022722326162        13.871689839089962
-1.3038525914123082       1.601347339490853        13.929712401482206
-1.1755692772563593       1.6180348804555982       13.98030313673629
-1.2470965807022718       1.646265404583826        14.045976457169742
-1.1183845735992872       1.6580759770092384       14.084090929863088
-1.189169715261724        1.6898851959719678       14.159109393667947
-1.059837212578299        1.6960970145702927       14.182877696762864
-1.129033582068835        1.731358970745779        14.267008837993984
-0.9999985355119151       1.7320516530906418       14.276497500934495
-1.0675830467102165       1.7720374625951496       14.37295056132922
-0.9389419337642696       1.7658958194126329       14.364793452892343
-1.0037970578770177       1.8092359257066308       14.470205594906863
-0.8767411072639045       1.7975886712019693       14.447620516306182
-0.9385948784732691       1.8420746403762729       14.55643891873116
-0.13951167151523933      -1.9951281897439634      5.033718427236401
-0.17903346786486735      -2.0530321023257283      4.887427472102192
-0.10808764528853548      -2.0594009496915087      4.870745197715952
-0.06979829901750112      -1.9987816782866166      5.024084587895896
-0.03691493594937122      -2.0612444791275633      4.865798418253263
0                         -2                       5.020872062962332
0.0348493993420934        -2.059078713727917       4.871283431973127
0.06979881898713512       -1.9987816601289903      5.024085584843557
0.10740480299486739       -2.0591098151695113      4.8714804788455135
0.1395126868041629        -1.9951281187484384      5.033720521722451
0.27834573686787656       -1.9805362028419167      5.072189776726619
0.2090566021308754        -1.9890438248327997      5.04976300596866
0.25185215750968315       -2.0445141999991776      4.909851110736086
0.1787807471957722        -2.0545056813654146      4.883693651028498
0.34729575105187127       -1.969615612575539       5.1009681732959455
0.32466587178630263       -2.0362312937820177      4.931960533679725
0.415822716831225         -1.956295342776008       5.136055970762007
0.3953844411212363        -2.023827675268507       4.964745861996712
0.48384305487816526       -1.9405916361373317      5.177401125950435
0.46536619646808663       -2.0098771873228913      5.001695953982263
0.5512739300701226        -1.922523615986301       5.224941713504294
0.5348024484722363        -1.9931729400962443      5.045860338896958
0.6026403380730897        -1.9716498599342824      5.102413240065039
0.6180331244361026        -1.9021133134226649      5.278605606317015
0.6702237374459277        -1.947139449029051       5.166738873774567
0.6840392723252542        -1.8793856107560087      5.338310355101136
0.7492122255824168        -1.854368097503255       5.403963340539029
0.7417652184780168        -1.9232763552225733      5.229816538237627
0.8134722586817302        -1.8270913727439153      5.475460658569726
0.8071532734146785        -1.9004098874802118      5.290360376434919
0.8722863385453167        -1.8713849977898833      5.3666310585546
0.8767411072639045        -1.7975886712019693      5.552688061593845
0.935215068865772         -1.837794816459582       5.45446539337937
0.9389419337642696        -1.7658958194126329      5.635520866922863
1.059837212578299         -1.6960970145702927      5.817449001933472
0.9999985355119151        -1.7320516530906418      5.723822865384645
1.061649356781321         -1.7666686141170518      5.640493418921977
0.9971869795737468        -1.80153673551037        5.5490945577666295
-0.8134722586817302       1.8270913727439153       14.524842508035853
-0.8730606534799807       1.870871451068813        14.632337867096778
-0.7492122255824168       1.854368097503255        14.596334769331422
-0.807874206658483        1.8969368661012977       14.701141042974141
-0.6840392723252542       1.8793856107560087       14.661983050208683
-0.7419156813877431       1.9244192292418112       14.773353956681122
-0.6180331244361026       1.9021133134226649       14.721683508403729
-0.6732608049958331       1.9487389286057915       14.83747600834856
1.1220939384811102        -1.7308077968116686      5.734254674187231
1.1183845735992872        -1.6580759770092384      5.916242324062176
1.1813532635579773        -1.687773474097653       5.845983539673664
1.1755692772563593        -1.6180348804555982      6.020036896092475
1.2313213953763789        -1.576022722326162       6.128657136445674
1.242743297522241         -1.6482120228172308      5.949191559867405
1.3002090544066358        -1.6063167829113898      6.057970652964947
1.2855738451268326        -1.5320900393664239      6.241921338804452
-0.5512739300701226       1.922523615986301        14.775343522871902
-0.6041197571180132       1.9715625339239036       14.897598662092234
-0.48384305487816526      1.9405916361373317       14.8228806587761
-0.5347389625910429       1.9918754593396097       14.951136847861504
-0.415822716831225        1.956295342776008        14.864222805722036
-0.4651543127263211       2.0089786180743294       14.996309541700162
-0.34729575105187127      1.969615612575539        14.899308049584036
-0.39556377374369717      2.0249212098926974       15.038290578440835
1.3542342463115105        -1.5591224506547532      6.179659054555054
1.3382598930887217        -1.4862908391530114      6.359637415118027
1.3893153786737424        -1.4386809161800385      6.481608063866346
1.4059338835722486        -1.507296787982479       6.312561235815569
1.4386781865610048        -1.3893182052767965      6.607630768608646
1.4594128054331625        -1.4572604464011027      6.440981125846257
1.4862882078875281        -1.3382628154045375      6.737498780444672
1.509733464658151         -1.4063737871465367      6.571060096925834
-0.27834573686787656      1.9805362028419167       14.928084353665495
-0.3243506508729814       2.0392517324928856       15.075964060867447
-0.2090566021308754       1.9890438248327997       14.950509510383933
-0.25215473175750297      2.0513349078913383       15.107691412365652
-0.1395126868041629       1.9951281187484384       14.966550867331735
-0.17987688225052675      2.059089037168616        15.128175088059196
-0.06979881898713512      1.9987816601289903       14.976185157291768
-0.10862910433262918      2.0606695635997476       15.132729638890732
0                         2                        14.979398516652816
-0.03738217954354078      2.059014316479759        15.128812985944593
1.5320875082073617        -1.2855768616442023      6.871002602166823
1.5564055975042759        -1.3526299631580054      6.7076587369668905
1.576020178323563         -1.231324651550908       7.007930601816482
1.6015332044314359        -1.2963682700885981      6.850036675071439
1.6180326317361413        -1.1755723723518754      7.1480709084756855
1.692379651312142         -1.1858011601563798      7.129013556638646
1.6580737714092937        -1.118387843533969       7.291213075469382
1.6477956616231044        -1.241620634964727       6.988453257454609
1.732049554120839         -1.0000021710325444      7.585672011029925
1.6960948514756706        -1.0598406742514284      7.4371486024468645
1.7726841040885548        -1.0636556229077985      7.433860324785208
1.7342034229704946        -1.1264206925729985      7.277667645173662
0.06979835037280635       1.998781676493267        14.976186305002551
0.03596091932116905       2.0614953464715353       15.135103523250555
0.13951170843000513       1.9951281871626547       14.966553265711632
0.10737915714889212       2.0609710837551147       15.133502609052636
0.2090559915083712        1.9890438890116153       14.950513014625448
0.17906373060183364       2.0559361155212694       15.120196426198563
0.27834637793517847       1.9805361127458312       14.928088570532585
0.25042068613342733       2.0475583531712207       15.098151002150578
1.7658939826672406        -0.9389453881774121      7.736581445889722
1.8072004894713296        -0.9990447130515938      7.593743244232627
1.797586906374097         -0.8767447256940895      7.8896802158953845
1.8384784530682003        -0.9341093303511867      7.7536710452517505
1.8270897678796263        -0.8134758632618257      8.044777328259235
1.8688366974920996        -0.8692816715477907      7.912785722416143
1.8543666708332327        -0.7492157567102231      8.201687737790456
1.8979873546747188        -0.8044490148866932      8.071348327236029
0.3472978314677468        1.9696152457416145       14.899312667461023
0.3200951302448457        2.0361247924477084       15.068123159110309
0.4158256290562705        1.9562947237622343       14.864227900407158
0.3907409249876821        2.0231825968519117       15.03399726404849
0.48384588019049757       1.9405909317068044       14.822886682537026
0.46137295155493036       2.0074744789089847       14.992605251523878
0.5512760236420917        1.9225230156638864       14.775350981893453
0.5323009768625087        1.9897655315421277       14.94587892432615
0.6180350129143284        1.9021126998188056       14.7216921149901
0.6034181535121979        1.9729724815998126       14.901196645242722
1.925317200830993         -0.7392830270526347      8.230122194260945
1.8793843415870752        -0.6840427593340318      8.360232061153472
1.9489500709520862        -0.6721349578572323      8.39297177006024
1.9021122442932346        -0.6180364148735531      8.520236957390754
0.68404124634702          1.879384892270877        14.661992590987191
0.6722450128135781        1.9522167138389137       14.84631256391791
0.7492141990753098        1.8543673001603385       14.596345346585558
0.7382914378570836        1.9260403684375493       14.777608705194455
0.8134743253572835        1.8270904526006677       14.524854026761096
0.8041561005072426        1.896598386372231        14.700468346814148
1.9225226650906264        -0.5512772462317256      8.681535333570507
1.970464832825626         -0.6021948002197814      8.561953933573742
1.9405906891889022        -0.4838468528711764      8.843965725053158
1.9933092832501398        -0.5339480283248943      8.726516417054697
0.8767432650153197        1.7975876187964461       14.447632959317609
0.8722673295841197        1.8688637773848733       14.627331410719554
0.938944029504763         1.765894705087865        14.36480701944595
0.9372428774517872        1.8383611004179325       14.5471766142996
2.011498830386522         -0.46549800125169755     8.890935674171658
1.9562945823640023        -0.41582629427833645     9.0073755499472
1.0000009167960164        1.7320502782561271       14.276511683388295
0.9995365318623596        1.8031679268010457       14.455205523435703
2.0248819390479262        -0.396301758181974       9.05659147272351
1.9696151759501856        -0.347298227272644       9.171615277179727
2.033473352479235         -0.32171227292174503     9.23465171084927
1.9805360863324843        -0.2783465658757216      9.336538408480568
1.989043884471589         -0.20905603470402634     9.502001787103872
2.046463294343199         -0.248412922733895       9.409511750996971
1.9951281897439634        -0.13951167151523933     9.667865747805424
2.0560102677728413        -0.17666080679843787     9.580366952922406
1.0598395182304123        1.6960955738392598       14.182893007137357
1.0611675489455321        1.7657696175026605       14.357617347347604
1.9987816782866166        -0.06979829901750112     9.833994364147996
2.061404346783742         -0.1043615041730438      9.75228815679135
1.11838677881049          1.6580744895757535       14.084107420509659
1.124022778490278         1.7288690430609013       14.261107265997383
2                         0                        10.000255660042674
2.0637769215252866        -0.03229709690062214     9.923530014406865
1.1755714015236338        1.6180333370854134       13.980320779601692
1.1853707627343735        1.690999494734197        14.162178230444168
1.9987816571764048        0.06979890353827216      10.166518140370627
2.0624486565185163        0.03917212496917342      10.093327408812591
1.231323776281266         1.576020862160283        13.871707956197634
1.2447794177178055        1.6495108487650816       14.054275085486282
1.9951281070758407        0.1395128537303027       10.332647375900267
2.058676389654754         0.11049801133255788      10.262841976256018
1.2855793710908479        1.532085402523521        13.758444947753887
1.3009928140992664        1.6044347905863197       13.937649653502005
1.9890437986178802        0.2090568515494133       10.498509207111137
2.0549891826616067        0.18128251779405372      10.431156553804882
1.3382591795353718        1.4862914816378765       13.640750849444322
1.353251684220494         1.556300663338534        13.813772518652604
1.9805361563521657        0.2783460676600089       10.663967693761702
2.050404646572482         0.2518662573695985       10.599124667623073
1.4041516713286202        1.5058012026206486       13.684253995639223
1.3893186284307706        1.4386777779250093       13.518778947314429
2.0419915601856466        0.32311455848467296      10.768937419351053
1.9696155403119548        0.34729616087951104      10.828884821385474
1.4386851268717848        1.3893110183533122       13.392754347548482
1.4580188264523182        1.4577646597285365       13.56078101139538
1.9562952390095711        0.4158232050144448       10.99311932713564
2.0288361528628203        0.3947276846986178       10.940017425423974
1.4862888557443878        1.3382620958878115       13.262911136945752
1.509730840944332         1.40811943219503         13.433666263659132
1.9405914083110758        0.4838439686399288       11.156526411860815
2.01177912754131          0.4667813826305776       11.112624173794908
1.5320922027482429        1.285571266899675        13.129403181827541
1.5584506732209042        1.3549904061426972       13.298412568924249
1.9225233592980142        0.5512748252491477       11.318954230999735
1.9938987611106296        0.5379278071191919       11.283476423716161
1.5760216300567513        1.2313227934190372       12.992492660761934
1.6035852896968787        1.299473574771721        13.157860054308088
1.9021130360965448        0.6180339779588043       11.480248420003361
1.9743792269453477        0.6073576120847503       11.450700343977003
1.618034064568712         1.1755704002292897       12.852359871567025
1.6457715976979532        1.2429068464132387       13.015307803308042
1.8793852732012923        0.6840401997500617       11.64024840159974
1.9519192272829209        0.6761143344483499       11.616897896733862
1.658075182358903         1.1183857517178444       12.709224973698179
1.6888901324090835        1.1865355050819135       12.873518134768686
1.8543677404515986        0.7492131093169914       11.79878745732826
1.9267193404301028        0.744201747095901        11.782110435782398
1.6960962305669225        1.0598384672470975       12.563296449199846
1.7292437902182223        1.1280551893670836       12.727183361773818
1.8270909486671019        0.8134732111746207       11.955692381616684
1.8988988996526888        0.8115107784462253       11.946101109341827
1.7320508983115945        0.9999998428289871       12.414779711441431
1.766674639600662         1.06792951985956         12.57749280517614
1.7975881572937051        0.8767421609329744       12.110783833864692
1.8685913635787972        0.8778022180237691       12.108305026803764
1.7658952849272824        0.9389429389859597       12.263876611988174
1.8022868298320738        1.0058706673651645       12.423689625756106
1.8364304575525763        0.9424730883707771       12.267221765267164
-1.938739656872281        -0.20925712143377764     9.500515857167715
-1.9300166533260548       -0.2784523619653734      9.334964568059998
-1.8725348579382437       -0.23068764838380684     9.447972088138757
-1.918837286763348        -0.3472225034854046      9.170165606255434
-1.8631100358371473       -0.2933667548398549      9.297590640428815
-1.9052232000457043       -0.415481116306874       9.006269066075989
-1.8891943965148756       -0.48316097956767345     8.843384286850767
-1.8374128627282766       -0.4256349425376665      8.979472485437713
-1.8507993201274608       -0.3629568567707482      9.13037330573907
-1.8012993372159711       -0.7468739503726864      8.20406916745833
-1.7735199553807326       -0.810633682908824       8.04815938607567
-1.731505359175813        -0.7483470567090484      8.196443349630423
-1.7434846714325003       -0.8733620099820621      7.894185456886366
-1.704930941459221        -0.8072963331033365      8.052034168336236
-1.849951825355147        -0.6165859582127701      8.520947960986662
-1.826787462639674        -0.6821638852522921      8.361726370623106
-1.7804865741318114       -0.6228422717347194      8.50236823242229
-1.7581745521577312       -0.6840391644214909      8.35346205817338
-1.8707629602472144       -0.5502235423599025      8.681557497005857
-1.8201590091947661       -0.4940548257270086      8.81437271532093
-1.802865339884278        -0.5554551923641046      8.665857556274945
-1.7112316055566152       -0.9349793538598219      7.742341266556487
-1.6738682747690692       -0.8700357355551573      7.897786731300514
-1.676801711030548        -0.9954074652548204      7.592826231860248
-1.644779190691069        -0.9260973615279505      7.759527721661321
-1.6402388310653877       -1.054569379920188       7.445845468246556
-1.6015895552042767       -1.1123897233706213      7.3016082037729655
-1.5725552837171979       -1.0407968623189916      7.4747786379375905
-1.607212529745274        -0.9889143177125134      7.6038895760895855
-1.56090299768158         -1.1687950341392876      7.160326731900497
-1.5182306167691497       -1.2237139348331234      7.02221497876094
-1.495213858016401        -1.1510909357198438      7.199104426333611
-1.5335235967533052       -1.0996840791108338      7.327907025323557
-1.473620770484199        -1.2770833272725615      6.88747208111307
-1.4271461636917144       -1.3288167019796304      6.756361485192545
-1.408419885641276        -1.2549235324921446      6.9374883274111605
-1.450895956948668        -1.2062379803816932      7.060408959205205
-1.3788559209010685       -1.3788605257226227      6.6290674603610755
-1.3609522562941152       -1.305548593175313       6.809218602462706
-1.3288015478830486       -1.4271602735304867      6.505779435010406
-1.3160195195868976       -1.351345014699238       6.692867298385994
-1.277067048697456        -1.473634877821222       6.386756631544011
-1.2648452536696313       -1.399263481379215       6.570685784311483
-1.2237088645521623       -1.5182347034686234      6.272179061443619
-1.2167653943580388       -1.4414959735843424      6.462693882802863
-1.1687911444433463       -1.5609059102555838      6.162237257558549
-1.161638608222939        -1.487508776593312       6.34476541228062
-1.1123857292740746       -1.6015923293108598      6.0571269273095
-1.1106331951137565       -1.5251734229351783      6.2478261076476835
-1.7735219653375582       0.810629285472221        11.952230422155582
-1.8013011027159989       0.7468696923521035       11.796325025348331
-1.7264575477249762       0.7609985362076245       11.834881556228863
-1.743486847797451        0.8733576653109006       12.106200141968634
-1.7002838581619721       0.8191000026470021       11.977277821907842
-1.9449876979636467       -0.13972420967775478     9.666671864505526
-1.879448993697352        -0.16011861565106086     9.617046562907428
-1.9487452638505016       -0.06994209476587732     9.833286115103082
-1.883598495267796        -0.09593869813316874     9.770680013355735
-1.95                     0                        10.000213067002086
-1.8862853531244232       -0.025175444497199842    9.939987322877947
-1.9487452857509746       0.06994148456639732      10.167138377904005